# vtk DataFile Version 3.0
Steady-state temperature (Jacobi)
ASCII
DATASET STRUCTURED_POINTS
DIMENSIONS 181 181 1
ORIGIN 0.0 0.0 0.0
SPACING 0.05 0.05 1.0
POINT_DATA 32761
SCALARS Temperature float 1
LOOKUP_TABLE default
32.000000 32.000000 32.000000 32.000000 32.000000 32.000000 32.000000 32.000000
32.000000 32.000000 32.000000 32.000000 32.000000 32.000000 32.000000 32.000000
32.000000 32.000000 32.000000 32.000000 32.000000 32.000000 32.000000 32.000000
32.000000 32.000000 32.000000 32.000000 32.000000 32.000000 32.000000 32.000000
32.000000 32.000000 32.000000 32.000000 32.000000 32.000000 32.000000 32.000000
32.000000 32.000000 32.000000 32.000000 32.000000 32.000000 32.000000 32.000000
32.000000 32.000000 32.000000 32.000000 32.000000 32.000000 32.000000 32.000000
32.000000 32.000000 32.000000 32.000000 32.000000 32.000000 32.000000 32.000000
32.000000 32.000000 32.000000 32.000000 32.000000 32.000000 32.000000 32.000000
32.000000 32.000000 32.000000 32.000000 32.000000 32.000000 32.000000 32.000000
32.000000 32.000000 32.000000 32.000000 32.000000 32.000000 32.000000 32.000000
32.000000 32.000000 32.000000 32.000000 32.000000 32.000000 32.000000 32.000000
32.000000 32.000000 32.000000 32.000000 32.000000 32.000000 32.000000 32.000000
32.000000 32.000000 32.000000 32.000000 32.000000 32.000000 32.000000 32.000000
32.000000 32.000000 32.000000 32.000000 32.000000 32.000000 32.000000 32.000000
32.000000 32.000000 32.000000 32.000000 32.000000 32.000000 32.000000 32.000000
32.000000 32.000000 32.000000 32.000000 32.000000 32.000000 32.000000 32.000000
32.000000 32.000000 32.000000 32.000000 32.000000 32.000000 32.000000 32.000000
32.000000 32.000000 32.000000 32.000000 32.000000 32.000000 32.000000 32.000000
32.000000 32.000000 32.000000 32.000000 32.000000 32.000000 32.000000 32.000000
32.000000 32.000000 32.000000 32.000000 32.000000 32.000000 32.000000 32.000000
32.000000 32.000000 32.000000 32.000000 32.000000 32.000000 32.000000 32.000000
32.000000 32.000000 32.000000 32.000000 32.000000
32.377778 32.393101 32.408429 32.423767 32.439120 32.454492 32.469889 32.485315
32.500775 32.516273 32.531812 32.547398 32.563034 32.578724 32.594470 32.610277
32.626146 32.642082 32.658083 32.674155 32.690296 32.706510 32.722796 32.739155
32.755585 32.772088 32.788661 32.805303 32.822012 32.838786 32.855619 32.872512
32.889456 32.906451 32.923487 32.940563 32.957667 32.974798 32.991943 33.009099
33.026252 33.043398 33.060523 33.077619 33.094674 33.111678 33.128616 33.145480
33.162253 33.178925 33.195478 33.211903 33.228181 33.244300 33.260241 33.275994
33.291537 33.306859 33.321941 33.336768 33.351321 33.365587 33.379547 33.393186
33.406485 33.419431 33.432005 33.444193 33.455977 33.467345 33.478279 33.488766
33.498791 33.508341 33.517401 33.525960 33.534005 33.541527 33.548511 33.554951
33.560835 33.566156 33.570905 33.575076 33.578663 33.581659 33.584062 33.585867
33.587072 33.587674 33.587674 33.587071 33.585865 33.584060 33.581658 33.578662
33.575077 33.570907 33.566161 33.560844 33.554966 33.548532 33.541555 33.534044
33.526009 33.517463 33.508417 33.498884 33.488878 33.478412 33.467501 33.456159
33.444404 33.432247 33.419707 33.406799 33.393540 33.379945 33.366033 33.351818
33.337320 33.322552 33.307533 33.292278 33.276806 33.261130 33.245269 33.229236
33.213049 33.196720 33.180267 33.163702 33.147041 33.130294 33.113479 33.096604
33.079685 33.062730 33.045754 33.028763 33.011770 32.994783 32.977812 32.960864
32.943948 32.927068 32.910236 32.893452 32.876726 32.860059 32.843460 32.826927
32.810468 32.794083 32.777776 32.761546 32.745397 32.729327 32.713340 32.697431
32.681603 32.665853 32.650182 32.634585 32.619062 32.603609 32.588225 32.572904
32.557646 32.542445 32.527298 32.512200 32.497148 32.482136 32.467160 32.452215
32.437296 32.422398 32.407516 32.392644 32.377778
32.755556 32.786205 32.816865 32.847545 32.878254 32.909003 32.939801 32.970656
33.001580 33.032579 33.063663 33.094839 33.126116 33.157499 33.188998 33.220616
33.252361 33.284235 33.316246 33.348393 33.380685 33.413117 33.445697 33.478420
33.511290 33.544302 33.577457 33.610749 33.644177 33.677731 33.711411 33.745203
33.779105 33.813102 33.847189 33.881348 33.915572 33.949843 33.984149 34.018470
34.052794 34.087096 34.121363 34.155567 34.189695 34.223715 34.257611 34.291351
34.324916 34.358273 34.391401 34.424264 34.456840 34.489092 34.520997 34.552516
34.583624 34.614284 34.644467 34.674137 34.703264 34.731812 34.759751 34.787044
34.813662 34.839569 34.864736 34.889126 34.912714 34.935463 34.957348 34.978335
34.998400 35.017512 35.035647 35.052776 35.068880 35.083932 35.097913 35.110801
35.122579 35.133227 35.142734 35.151082 35.158260 35.164258 35.169067 35.172680
35.175091 35.176297 35.176296 35.175089 35.172677 35.169064 35.164255 35.158259
35.151082 35.142739 35.133239 35.122598 35.110830 35.097956 35.083990 35.068957
35.052875 35.035771 35.017665 34.998586 34.978559 34.957614 34.935775 34.913078
34.889548 34.865220 34.840121 34.814290 34.787753 34.760548 34.732704 34.704259
34.675241 34.645690 34.615632 34.585107 34.554142 34.522775 34.491032 34.458951
34.426556 34.393884 34.360958 34.327814 34.294472 34.260967 34.227318 34.193556
34.159700 34.125779 34.091808 34.057815 34.023813 33.989829 33.955871 33.921965
33.888118 33.854351 33.820671 33.787097 33.753631 33.720291 33.687079 33.654008
33.621079 33.588302 33.555677 33.523212 33.490904 33.458761 33.426776 33.394955
33.363291 33.331787 33.300436 33.269239 33.238186 33.207277 33.176502 33.145858
33.115336 33.084930 33.054631 33.024432 32.994323 32.964296 32.934340 32.904447
32.874605 32.844806 32.815038 32.785292 32.755556
33.133333 33.179317 33.225316 33.271345 33.317418 33.363550 33.409756 33.456050
33.502444 33.548954 33.595590 33.642366 33.689291 33.736380 33.783638 33.831080
33.878708 33.926535 33.974563 34.022803 34.071252 34.119920 34.168804 34.217909
34.267230 34.316770 34.366520 34.416482 34.466642 34.517000 34.567539 34.618257
34.669132 34.720158 34.771312 34.822584 34.873946 34.925387 34.976874 35.028392
35.079907 35.131400 35.182831 35.234179 35.285403 35.336477 35.387355 35.438010
35.488394 35.538476 35.588205 35.637547 35.686450 35.734877 35.782774 35.830102
35.876805 35.922843 35.968159 36.012713 36.056445 36.099315 36.141264 36.182251
36.222219 36.261125 36.298914 36.335545 36.370963 36.405130 36.437992 36.469513
36.499643 36.528347 36.555580 36.581308 36.605491 36.628098 36.649094 36.668451
36.686138 36.702133 36.716409 36.728947 36.739728 36.748737 36.755959 36.761386
36.765007 36.766818 36.766817 36.765004 36.761381 36.755954 36.748733 36.739726
36.728949 36.716417 36.702150 36.686167 36.668496 36.649158 36.628186 36.605606
36.581456 36.555766 36.528577 36.499923 36.469849 36.438391 36.405599 36.371510
36.336177 36.299641 36.261955 36.223161 36.183316 36.142460 36.100654 36.057937
36.014370 35.969993 35.924866 35.879029 35.832541 35.785441 35.737787 35.689617
35.640986 35.591930 35.542504 35.492741 35.442693 35.392390 35.341882 35.291196
35.240379 35.189455 35.138468 35.087439 35.036408 34.985393 34.934430 34.883535
34.832740 34.782056 34.731513 34.681119 34.630900 34.580861 34.531023 34.481390
34.431978 34.382788 34.333834 34.285114 34.236638 34.188400 34.140410 34.092658
34.045151 33.997877 33.950840 33.904027 33.857437 33.811058 33.764886 33.718907
33.673115 33.627494 33.582037 33.536727 33.491555 33.446504 33.401562 33.356712
33.311942 33.267234 33.222574 33.177946 33.133333
33.511111 33.572439 33.633788 33.695176 33.756625 33.818152 33.879778 33.941520
34.003399 34.065430 34.127632 34.190019 34.252609 34.315413 34.378450 34.441726
34.505258 34.569050 34.633118 34.697461 34.762093 34.827011 34.892225 34.957728
35.023528 35.089613 35.155989 35.222639 35.289565 35.356747 35.424182 35.491846
35.559733 35.627812 35.696075 35.764485 35.833029 35.901668 35.970383 36.039130
36.107885 36.176600 36.245249 36.313775 36.382150 36.450313 36.518231 36.585840
36.653102 36.719949 36.786340 36.852203 36.917494 36.982140 37.046091 37.109272
37.171633 37.233096 37.293608 37.353090 37.411490 37.468728 37.524749 37.579475
37.632852 37.684802 37.735271 37.784184 37.831489 37.877113 37.921006 37.963098
38.003343 38.041675 38.078050 38.112409 38.144711 38.174903 38.202948 38.228799
38.252425 38.273787 38.292857 38.309603 38.324004 38.336036 38.345683 38.352930
38.357768 38.360187 38.360185 38.357763 38.352924 38.345677 38.336030 38.324001
38.309605 38.292868 38.273810 38.252465 38.228860 38.203034 38.175020 38.144865
38.112607 38.078299 38.041982 38.003716 37.963547 37.921538 37.877739 37.832219
37.785029 37.736241 37.685909 37.634109 37.580895 37.526345 37.470514 37.413481
37.355301 37.296054 37.235794 37.174600 37.112525 37.049648 36.986020 36.921717
36.856788 36.791308 36.725320 36.658899 36.592084 36.524945 36.457521 36.389875
36.322041 36.254082 36.186025 36.117929 36.049817 35.981743 35.913727 35.845816
35.778027 35.710402 35.642953 35.575718 35.508705 35.441946 35.375445 35.309230
35.243301 35.177681 35.112366 35.047375 34.982701 34.918356 34.854333 34.790638
34.727262 34.664207 34.601460 34.539021 34.476874 34.415015 34.353427 34.292103
34.231024 34.170179 34.109548 34.049119 33.988869 33.928785 33.868844 33.809029
33.749318 33.689692 33.630130 33.570610 33.511111
33.888889 33.965576 34.042289 34.119052 34.195889 34.272826 34.349886 34.427095
34.504471 34.582042 34.659824 34.737843 34.816111 34.894655 34.973484 35.052620
35.132070 35.211856 35.291979 35.372457 35.453289 35.534491 35.616054 35.697991
35.780291 35.862962 35.945985 36.029368 36.113085 36.197138 36.281496 36.366158
36.451086 36.536272 36.621676 36.707282 36.793044 36.878943 36.964924 37.050964
37.137001 37.223008 37.308917 37.394693 37.480266 37.565595 37.650602 37.735242
37.819433 37.903126 37.986233 38.068700 38.150436 38.231383 38.311447 38.390566
38.468644 38.545616 38.621383 38.695880 38.769008 38.840697 38.910850 38.979397
39.046242 39.111315 39.174522 39.235794 39.295041 39.352195 39.407170 39.459902
39.510310 39.558333 39.603896 39.646942 39.687404 39.725231 39.760361 39.792751
39.822347 39.849111 39.873000 39.893982 39.912022 39.927098 39.939184 39.948264
39.954324 39.957355 39.957353 39.954319 39.948256 39.939175 39.927091 39.912019
39.893985 39.873014 39.849141 39.822397 39.792827 39.760470 39.725379 39.687598
39.647191 39.604208 39.558718 39.510778 39.460464 39.407837 39.352979 39.295954
39.236851 39.175736 39.112701 39.047815 38.981173 38.912846 38.842931 38.771497
38.698645 38.624442 38.548989 38.472354 38.394634 38.315895 38.236235 38.155716
38.074432 37.992444 37.909841 37.826680 37.743048 37.658995 37.574605 37.489923
37.405028 37.319959 37.234790 37.149557 37.064325 36.979125 36.894018 36.809029
36.724212 36.639586 36.555200 36.471068 36.387233 36.303702 36.220513 36.137668
36.055199 35.973104 35.891407 35.810103 35.729211 35.648722 35.568648 35.488976
35.409714 35.330846 35.252375 35.174281 35.096563 35.019198 34.942182 34.865489
34.789110 34.713019 34.637202 34.561634 34.486296 34.411161 34.336209 34.261412
34.186749 34.112190 34.037712 33.963287 33.888889
34.266667 34.358730 34.450825 34.542979 34.635225 34.727589 34.820104 34.912794
35.005692 35.098819 35.192207 35.285873 35.379849 35.474148 35.568800 35.663814
35.759217 35.855015 35.951230 36.047864 36.144937 36.242443 36.340400 36.438796
36.537645 36.636927 36.736652 36.836795 36.937360 37.038315 37.139659 37.241352
37.343388 37.445720 37.548336 37.651180 37.754235 37.857439 37.960766 38.064147
38.167551 38.270901 38.374160 38.477243 38.580106 38.682659 38.784851 38.886586
38.987807 39.088411 39.188336 39.287476 39.385761 39.483081 39.579364 39.674494
39.768396 39.860951 39.952081 40.041668 40.129628 40.215845 40.300233 40.382677
40.463091 40.541360 40.617403 40.691105 40.762386 40.831139 40.897284 40.960720
41.021373 41.079146 41.133971 41.185760 41.234449 41.279959 41.322234 41.361204
41.396819 41.429021 41.457769 41.483015 41.504725 41.522864 41.537409 41.548335
41.555627 41.559275 41.559273 41.555622 41.548326 41.537399 41.522856 41.504722
41.483020 41.457787 41.429058 41.396880 41.361296 41.322365 41.280137 41.234683
41.186060 41.134348 41.079610 41.021937 40.961396 40.898086 40.832081 40.763484
40.692375 40.618861 40.543025 40.464980 40.384810 40.302631 40.218527 40.132618
40.044987 39.955754 39.865002 39.772850 39.679378 39.584704 39.488906 39.392099
39.294357 39.195792 39.096472 38.996505 38.895955 38.794926 38.693474 38.591696
38.489646 38.387412 38.285042 38.182619 38.080182 37.977809 37.875531 37.773419
37.671497 37.569830 37.468436 37.367370 37.266645 37.166309 37.066369 36.966864
36.867796 36.769198 36.671065 36.573425 36.476266 36.379608 36.283438 36.187768
36.092579 35.997880 35.903646 35.809880 35.716556 35.623670 35.531193 35.439116
35.347409 35.256057 35.165029 35.074307 34.983857 34.893657 34.803673 34.713881
34.624245 34.534739 34.445327 34.355981 34.266667
34.644444 34.751906 34.859402 34.966971 35.074644 35.182460 35.290448 35.398648
35.507085 35.615798 35.724809 35.834156 35.943857 36.053948 36.164443 36.275374
36.386751 36.498604 36.610935 36.723771 36.837109 36.950973 37.065350 37.180261
37.295687 37.411642 37.528101 37.645071 37.762520 37.880449 37.998817 38.117619
38.236806 38.356366 38.476241 38.596411 38.716810 38.837412 38.958141 39.078963
39.199794 39.320592 39.441265 39.561763 39.681987 39.801878 39.921329 40.040276
40.158604 40.276241 40.393066 40.509002 40.623921 40.737741 40.850329 40.961598
41.071413 41.179680 41.286264 41.391067 41.493952 41.594821 41.693536 41.789999
41.884072 41.975658 42.064622 42.150869 42.234270 42.314729 42.392125 42.466367
42.537340 42.604958 42.669114 42.729730 42.786709 42.839978 42.889452 42.935067
42.976749 43.014443 43.048088 43.077640 43.103050 43.124284 43.141307 43.154097
43.162632 43.166902 43.166900 43.162625 43.154087 43.141296 43.124275 43.103047
43.077647 43.048111 43.014488 42.976822 42.935177 42.889607 42.840188 42.786984
42.730083 42.669556 42.605502 42.538000 42.467159 42.393064 42.315832 42.235554
42.152354 42.066327 41.977603 41.886279 41.792491 41.696336 41.597954 41.497443
41.394943 41.290551 41.184409 41.076612 40.967298 40.856562 40.744539 40.631318
40.517032 40.401766 40.285647 40.168754 40.051209 39.933085 39.814497 39.695511
39.576236 39.456729 39.337092 39.217376 39.097673 38.978027 38.858522 38.739193
38.620117 38.501320 38.382871 38.264788 38.147132 38.029913 37.913182 37.796945
37.681244 37.566076 37.451477 37.337437 37.223983 37.111100 36.998808 36.887088
36.775950 36.665370 36.555353 36.445871 36.336922 36.228474 36.120519 36.013022
35.905969 35.799324 35.693068 35.587163 35.481584 35.376292 35.271259 35.166446
35.061821 34.957345 34.852982 34.748694 34.644444
35.022222 35.145105 35.268029 35.391034 35.514163 35.637451 35.760944 35.884673
36.008683 36.133002 36.257673 36.382722 36.508189 36.634093 36.760475 36.887346
37.014745 37.142677 37.271176 37.400242 37.529903 37.660152 37.791013 37.922471
38.054543 38.187207 38.320473 38.454310 38.588723 38.723669 38.859148 38.995107
39.131538 39.268378 39.405611 39.543165 39.681014 39.819077 39.957320 40.095650
40.234026 40.372346 40.510557 40.648550 40.786262 40.923576 41.060421 41.196669
41.332243 41.467006 41.600874 41.733704 41.865403 41.995824 42.124866 42.252378
42.378255 42.502340 42.624526 42.744654 42.862611 42.978241 43.091428 43.202016
43.309890 43.414896 43.516921 43.615813 43.711464 43.803727 43.892497 43.977636
44.059044 44.136591 44.210184 44.279704 44.345067 44.406164 44.462919 44.515240
44.563058 44.606295 44.644894 44.678792 44.707944 44.732301 44.751831 44.766502
44.776295 44.781193 44.781190 44.776288 44.766492 44.751820 44.732292 44.707941
44.678801 44.644922 44.606347 44.563143 44.515367 44.463099 44.406406 44.345384
44.280110 44.210692 44.137215 44.059801 43.978544 43.893573 43.804990 43.712935
43.617513 43.518872 43.417122 43.312416 43.204867 43.094632 42.981824 42.866605
42.749086 42.629430 42.507748 42.384200 42.258896 42.131993 42.003596 41.873860
41.742885 41.610820 41.477759 41.343846 41.209167 41.073859 40.938000 40.801722
40.665092 40.528233 40.391206 40.254123 40.117036 39.980050 39.843206 39.706598
39.570261 39.434277 39.298673 39.163522 39.028840 38.894691 38.761084 38.628072
38.495656 38.363881 38.232739 38.102266 37.972447 37.843310 37.714833 37.587034
37.459887 37.333403 37.207549 37.082329 36.957705 36.833674 36.710196 36.587259
36.464821 36.342864 36.221343 36.100235 35.979495 35.859092 35.738981 35.619128
35.499487 35.380020 35.260681 35.141430 35.022222
35.400000 35.538332 35.676710 35.815181 35.953789 36.092583 36.231603 36.370898
36.510503 36.650468 36.790823 36.931617 37.072873 37.214638 37.356931 37.499796
37.643242 37.787312 37.932007 38.077365 38.223381 38.370085 38.517464 38.665543
38.814300 38.963753 39.113870 39.264661 39.416084 39.568143 39.720784 39.874002
40.027734 40.181964 40.336618 40.491672 40.647040 40.802688 40.958519 41.114490
41.270492 41.426471 41.582308 41.737939 41.893235 42.048122 42.202460 42.356165
42.509090 42.661141 42.812162 42.962052 43.110646 43.257835 43.403450 43.547375
43.689435 43.829509 43.967420 44.103042 44.236196 44.366754 44.494537 44.619415
44.741212 44.859798 44.975001 45.086694 45.194708 45.298921 45.399173 45.495347
45.587290 45.674894 45.758016 45.836557 45.910387 45.979414 46.043525 46.102639
46.156656 46.205509 46.249114 46.287415 46.320348 46.347870 46.369934 46.386511
46.397575 46.403109 46.403107 46.397567 46.386500 46.369922 46.347861 46.320347
46.287427 46.249146 46.205570 46.156755 46.102785 46.043730 45.979690 45.910747
45.837017 45.758591 45.675600 45.588147 45.496372 45.400388 45.300347 45.196367
45.088611 44.977201 44.862308 44.744058 44.622628 44.498146 44.370791 44.240693
44.108034 43.972942 43.835598 43.696128 43.554712 43.411471 43.266583 43.120164
42.972385 42.823356 42.673243 42.522148 42.370229 42.217581 42.064353 41.910630
41.756553 41.602197 41.447692 41.293104 41.138553 40.984094 40.829837 40.675826
40.522159 40.368872 40.216051 40.063721 39.911958 39.760776 39.610242 39.460359
39.311184 39.162712 39.014987 38.867998 38.721779 38.576310 38.431615 38.287668
38.144484 38.002031 37.860314 37.719296 37.578974 37.439307 37.300283 37.161858
37.024013 36.886700 36.749894 36.613544 36.477621 36.342072 36.206861 36.071936
35.937256 35.802770 35.668432 35.534191 35.400000
35.777778 35.931588 36.085451 36.239417 36.393540 36.547866 36.702451 36.857337
37.012580 37.168216 37.324300 37.480864 37.637961 37.795614 37.953874 38.112759
38.272316 38.432553 38.593512 38.755195 38.917639 39.080834 39.244812 39.409553
39.575082 39.741369 39.908430 40.076225 40.244762 40.413988 40.583902 40.754440
40.925590 41.097277 41.269479 41.442107 41.615129 41.788443 41.962006 42.135704
42.309483 42.483217 42.656839 42.830211 43.003256 43.175825 43.347829 43.519107
43.689562 43.859023 44.027381 44.194457 44.360133 44.524224 44.686602 44.847075
45.005512 45.161713 45.315542 45.466799 45.615341 45.760967 45.903534 46.042841
46.178745 46.311047 46.439606 46.564230 46.684778 46.801068 46.912963 47.020289
47.122918 47.220688 47.313477 47.401137 47.483558 47.560605 47.632180 47.698164
47.758473 47.813005 47.861690 47.904446 47.941217 47.971940 47.996576 48.015082
48.027435 48.033614 48.033611 48.027427 48.015071 47.996564 47.971932 47.941217
47.904462 47.861729 47.813076 47.758586 47.698330 47.632411 47.560916 47.483963
47.401653 47.314121 47.221478 47.123875 47.021434 46.914318 46.802657 46.686628
46.566366 46.442057 46.313841 46.181913 46.046417 45.907550 45.765458 45.620343
45.472351 45.321683 45.168484 45.012954 44.855233 44.695520 44.533949 44.370715
44.205943 44.039823 43.872473 43.704076 43.534738 43.364635 43.193864 43.022589
42.850897 42.678942 42.506800 42.334613 42.162446 41.990428 41.818613 41.647118
41.475987 41.305323 41.135157 40.965582 40.796618 40.628344 40.460771 40.293965
40.127926 39.962710 39.798306 39.634759 39.472050 39.310211 39.149217 38.989088
38.829792 38.671339 38.513690 38.356847 38.200765 38.045435 37.890810 37.736872
37.583569 37.430876 37.278738 37.127124 36.975976 36.825258 36.674909 36.524889
36.375136 36.225605 36.076237 35.926980 35.777778
36.155556 36.324878 36.494258 36.663754 36.833420 37.003318 37.173497 37.344018
37.514925 37.686281 37.858123 38.030510 38.203475 38.377074 38.551332 38.726302
38.902000 39.078475 39.255734 39.433819 39.612729 39.792500 39.973118 40.154613
40.336961 40.520182 40.704240 40.889148 41.074855 41.261366 41.448617 41.636601
41.825242 42.014522 42.204350 42.394697 42.585458 42.776592 42.967981 43.159570
43.351228 43.542888 43.734404 43.925698 44.116610 44.307049 44.496844 44.685891
44.874009 45.061081 45.246915 45.431385 45.614289 45.795491 45.974783 46.152019
46.326985 46.499529 46.669432 46.836537 47.000624 47.161531 47.319038 47.472983
47.623147 47.769369 47.911434 48.049184 48.182410 48.310961 48.434636 48.553289
48.666732 48.774828 48.877403 48.974328 49.065447 49.150642 49.229774 49.302741
49.369420 49.429726 49.483556 49.530839 49.571497 49.605475 49.632715 49.653183
49.666842 49.673676 49.673673 49.666834 49.653171 49.632704 49.605468 49.571500
49.530860 49.483602 49.429807 49.369548 49.302928 49.230033 49.150989 49.065897
48.974901 48.878116 48.775703 48.667791 48.554554 48.436133 48.312716 48.184452
48.051540 47.914136 47.772449 47.626639 47.476923 47.323462 47.166478 47.006133
46.842652 46.676193 46.506983 46.335177 46.160999 45.984599 45.806196 45.625934
45.444026 45.260607 45.075883 44.889979 44.703091 44.515336 44.326898 44.137880
43.948458 43.758722 43.568835 43.378875 43.188991 42.999249 42.809785 42.620652
42.431971 42.243784 42.056197 41.869240 41.683006 41.497512 41.312838 41.128989
40.946031 40.763959 40.582827 40.402620 40.223377 40.045075 39.867741 39.691344
39.515900 39.341369 39.167756 38.995016 38.823144 38.652088 38.481833 38.312323
38.143536 37.975410 37.807915 37.640989 37.474592 37.308660 37.143149 36.977993
36.813142 36.648531 36.484105 36.319799 36.155556
36.533333 36.718202 36.903136 37.088195 37.273446 37.458947 37.644764 37.830950
38.017572 38.204677 38.392330 38.580572 38.769465 38.959042 39.149364 39.340453
39.532365 39.725114 39.918752 40.113280 40.308743 40.505133 40.702488 40.900786
41.100057 41.300266 41.501435 41.703515 41.906518 42.110380 42.315101 42.520605
42.726880 42.933834 43.141441 43.349597 43.558262 43.767314 43.976703 44.186290
44.396011 44.605714 44.815319 45.024659 45.233641 45.442085 45.649883 45.856841
46.062840 46.267674 46.471210 46.673231 46.873593 47.072071 47.268510 47.462678
47.654410 47.843468 48.029683 48.212811 48.392678 48.569040 48.741720 48.910475
49.075127 49.235437 49.391228 49.542268 49.688384 49.829352 49.965006 50.095133
50.219576 50.338136 50.450665 50.556981 50.656949 50.750405 50.837228 50.917273
50.990437 51.056596 51.115663 51.167538 51.212152 51.249431 51.279323 51.301779
51.316768 51.324266 51.324263 51.316760 51.301767 51.279312 51.249425 51.212158
51.167563 51.115717 51.056689 50.990581 50.917482 50.837516 50.750789 50.657447
50.557612 50.451450 50.339098 50.220739 50.096521 49.966647 49.831275 49.690619
49.544847 49.394185 49.238806 49.078946 48.914782 48.746555 48.574445 48.398697
48.219489 48.037067 47.851608 47.663356 47.472481 47.279227 47.083756 46.886305
46.687027 46.486154 46.283828 46.080269 45.875611 45.670062 45.463744 45.256852
45.049494 44.841854 44.634025 44.426178 44.218391 44.010820 43.803530 43.596662
43.390266 43.184468 42.979305 42.774886 42.571237 42.368451 42.166540 41.965584
41.765582 41.566598 41.368621 41.171702 40.975819 40.781007 40.587237 40.394531
40.202849 40.012203 39.822545 39.633875 39.446138 39.259324 39.073373 38.888263
38.703930 38.520345 38.337438 38.155172 37.973477 37.792305 37.611587 37.431268
37.251278 37.071558 36.892037 36.712652 36.533333
36.911111 37.111565 37.312088 37.512752 37.713622 37.914770 38.116258 38.318160
38.520528 38.723438 38.926935 39.131092 39.335947 39.541570 39.747990 39.955272
40.163436 40.372542 40.582599 40.793660 41.005721 41.218830 41.432971 41.648180
41.864429 42.081745 42.300086 42.519468 42.739832 42.961185 43.183453 43.406627
43.630620 43.855409 44.080890 44.307027 44.533697 44.760853 44.988353 45.216134
45.444040 45.671992 45.899817 46.127420 46.354614 46.581289 46.807241 47.032346
47.256387 47.479226 47.700632 47.920454 48.138451 48.354460 48.568229 48.779586
48.988272 49.194105 49.396821 49.596232 49.792071 49.984146 50.172191 50.356009
50.535337 50.709981 50.879682 51.044248 51.203430 51.357041 51.504842 51.646655
51.782254 51.911473 52.034102 52.149985 52.258934 52.360807 52.455435 52.542695
52.622441 52.694566 52.758949 52.815505 52.864137 52.904780 52.937365 52.961848
52.978188 52.986363 52.986360 52.978180 52.961837 52.937355 52.904776 52.864147
52.815536 52.759012 52.694672 52.622602 52.542927 52.455753 52.361230 52.259480
52.150677 52.034960 51.912523 51.783522 51.648168 51.506629 51.359133 51.205861
51.047052 50.882894 50.713640 50.539483 50.360684 50.177438 49.990012 49.798601
49.603476 49.404830 49.202932 48.997972 48.790216 48.579847 48.367127 48.152230
47.935409 47.716829 47.496733 47.275275 47.052687 46.829109 46.604760 46.379765
46.154332 45.928569 45.702669 45.476727 45.250917 45.025320 44.800094 44.575304
44.351093 44.127509 43.904678 43.682635 43.461488 43.241258 43.022038 42.803833
42.586720 42.370694 42.155814 41.942063 41.729487 41.518056 41.307802 41.098686
40.890725 40.683872 40.478131 40.273447 40.069812 39.867164 39.665484 39.464706
39.264798 39.065690 38.867343 38.669682 38.472660 38.276198 38.080243 37.884717
37.689558 37.494688 37.300040 37.105538 36.911111
37.288889 37.504967 37.721122 37.937427 38.153961 38.370793 38.588002 38.805652
39.023824 39.242571 39.461974 39.682080 39.902966 40.124670 40.347265 40.570778
40.795278 41.020782 41.247350 41.474989 41.703751 41.933628 42.164666 42.396842
42.630191 42.864676 43.100321 43.337073 43.574945 43.813865 44.053835 44.294766
44.536644 44.779365 45.022898 45.267122 45.511991 45.757365 46.003182 46.249283
46.495592 46.741930 46.988204 47.234220 47.479865 47.724930 47.969287 48.212708
48.455052 48.696074 48.935619 49.173430 49.409337 49.643072 49.874451 50.103199
50.329122 50.551935 50.771437 50.987340 51.199435 51.407432 51.611119 51.810208
52.004485 52.193667 52.377542 52.555832 52.728333 52.894776 53.054962 53.208639
53.355618 53.495661 53.628592 53.754195 53.872306 53.982731 54.085325 54.179917
54.266380 54.344569 54.414379 54.475692 54.528425 54.572488 54.607822 54.634366
54.652085 54.660949 54.660946 54.652077 54.634356 54.607814 54.572488 54.528440
54.475730 54.414452 54.344688 54.266560 54.180173 54.085676 53.983194 53.872903
53.754948 53.629526 53.496801 53.356993 53.210278 53.056897 52.897039 52.730961
52.558862 52.381012 52.197619 52.008962 51.815254 51.616781 51.413759 51.206478
50.995152 50.780073 50.561452 50.339579 50.114657 49.886973 49.656723 49.424185
49.189544 48.953071 48.714937 48.475401 48.234622 47.992845 47.750214 47.506959
47.263208 47.019176 46.774974 46.530800 46.286748 46.043000 45.799631 45.556806
45.314585 45.073112 44.832432 44.592670 44.353857 44.116099 43.879411 43.643883
43.409514 43.176378 42.944460 42.713818 42.484426 42.256323 42.029472 41.803898
41.579555 41.356453 41.134535 40.913799 40.694181 40.475664 40.258180 40.041700
39.826148 39.611487 39.397638 39.184551 38.972145 38.760364 38.549122 38.338357
38.127983 37.917931 37.708116 37.498463 37.288889
37.666667 37.898411 38.130237 38.362229 38.594465 38.827030 39.059997 39.293453
39.527461 39.762109 39.997453 40.233578 40.470531 40.708392 40.947199 41.187029
41.427906 41.669901 41.913026 42.157345 42.402857 42.649616 42.897607 43.146874
43.397385 43.649174 43.902194 44.156464 44.411920 44.668569 44.926327 45.185188
45.445049 45.705887 45.967581 46.230092 46.493278 46.757083 47.021348 47.285996
47.550849 47.815814 48.080692 48.345371 48.609635 48.873355 49.136294 49.398308
49.659142 49.918634 50.176517 50.432611 50.686635 50.938396 51.187602 51.434046
51.677427 51.917529 52.154042 52.386744 52.615322 52.839546 53.059103 53.273763
53.483214 53.687225 53.885493 54.077788 54.263818 54.443360 54.616133 54.781925
54.940470 55.091569 55.234977 55.370508 55.497939 55.617102 55.727799 55.829883
55.923181 56.007567 56.082900 56.149075 56.205982 56.253541 56.291672 56.320323
56.339446 56.349013 56.349011 56.339439 56.320315 56.291666 56.253544 56.206001
56.149121 56.082983 56.007702 55.923381 55.830166 55.728183 55.617608 55.498588
55.371325 55.235988 55.092802 54.941954 54.783693 54.618218 54.445798 54.266646
54.081047 53.889223 53.691472 53.488023 53.279182 53.065182 52.846338 52.622880
52.395127 52.163307 51.927737 51.688642 51.446334 51.201029 50.953033 50.702553
50.449886 50.195224 49.938853 49.680953 49.421795 49.161543 48.900453 48.638671
48.376438 48.113882 47.851225 47.588579 47.326144 47.064016 46.802377 46.541301
46.280953 46.021390 45.762754 45.505086 45.248511 44.993050 44.738810 44.485796
44.234096 43.983700 43.734679 43.487008 43.240739 42.995838 42.752338 42.510193
42.269420 42.029964 41.791827 41.554945 41.319305 41.084834 40.851510 40.619251
40.388022 40.157739 39.928355 39.699781 39.471960 39.244803 39.018243 38.792189
38.566568 38.341288 38.116270 37.891425 37.666667
38.044444 38.291898 38.539441 38.787159 39.035147 39.283484 39.532263 39.781560
40.031468 40.282052 40.533406 40.785586 41.038682 41.292740 41.547844 41.804031
42.061378 42.319909 42.579696 42.840745 43.103121 43.366817 43.631887 43.898306
44.166117 44.435279 44.705823 44.977689 45.250893 45.525357 45.801082 46.077970
46.356005 46.635069 46.915130 47.196048 47.477772 47.760142 48.043088 48.326430
48.610077 48.893827 49.177572 49.461089 49.744248 50.026808 50.308619 50.589422
50.869048 51.147220 51.423751 51.698348 51.970810 52.240827 52.508185 52.772563
53.033732 53.291365 53.545222 53.794969 54.040360 54.281058 54.516813 54.747288
54.972233 55.191314 55.404284 55.610819 55.810675 56.003540 56.189179 56.367297
56.537670 56.700022 56.854145 56.999783 57.136748 57.264809 57.383797 57.493511