# vtk DataFile Version 3.0
Steady-state temperature (Jacobi)
ASCII
DATASET STRUCTURED_POINTS
DIMENSIONS 181 181 1
ORIGIN 0.0 0.0 0.0
SPACING 0.05 0.05 1.0
POINT_DATA 32761
SCALARS Temperature float 1
LOOKUP_TABLE default
32.000000 32.000000 32.000000 32.000000 32.000000 32.000000 32.000000 32.000000
32.000000 32.000000 32.000000 32.000000 32.000000 32.000000 32.000000 32.000000
32.000000 32.000000 32.000000 32.000000 32.000000 32.000000 32.000000 32.000000
32.000000 32.000000 32.000000 32.000000 32.000000 32.000000 32.000000 32.000000
32.000000 32.000000 32.000000 32.000000 32.000000 32.000000 32.000000 32.000000
32.000000 32.000000 32.000000 32.000000 32.000000 32.000000 32.000000 32.000000
32.000000 32.000000 32.000000 32.000000 32.000000 32.000000 32.000000 32.000000
32.000000 32.000000 32.000000 32.000000 32.000000 32.000000 32.000000 32.000000
32.000000 32.000000 32.000000 32.000000 32.000000 32.000000 32.000000 32.000000
32.000000 32.000000 32.000000 32.000000 32.000000 32.000000 32.000000 32.000000
32.000000 32.000000 32.000000 32.000000 32.000000 32.000000 32.000000 32.000000
32.000000 32.000000 32.000000 32.000000 32.000000 32.000000 32.000000 32.000000
32.000000 32.000000 32.000000 32.000000 32.000000 32.000000 32.000000 32.000000
32.000000 32.000000 32.000000 32.000000 32.000000 32.000000 32.000000 32.000000
32.000000 32.000000 32.000000 32.000000 32.000000 32.000000 32.000000 32.000000
32.000000 32.000000 32.000000 32.000000 32.000000 32.000000 32.000000 32.000000
32.000000 32.000000 32.000000 32.000000 32.000000 32.000000 32.000000 32.000000
32.000000 32.000000 32.000000 32.000000 32.000000 32.000000 32.000000 32.000000
32.000000 32.000000 32.000000 32.000000 32.000000 32.000000 32.000000 32.000000
32.000000 32.000000 32.000000 32.000000 32.000000 32.000000 32.000000 32.000000
32.000000 32.000000 32.000000 32.000000 32.000000 32.000000 32.000000 32.000000
32.000000 32.000000 32.000000 32.000000 32.000000 32.000000 32.000000 32.000000
32.000000 32.000000 32.000000 32.000000 32.000000
32.377778 32.393514 32.409255 32.425006 32.440770 32.456552 32.472357 32.488189
32.504053 32.519952 32.535889 32.551871 32.567898 32.583975 32.600105 32.616290
32.632533 32.648837 32.665203 32.681633 32.698127 32.714687 32.731313 32.748005
32.764763 32.781586 32.798472 32.815421 32.832428 32.849494 32.866612 32.883780
32.900994 32.918249 32.935538 32.952859 32.970201 32.987560 33.004927 33.022296
33.039655 33.056997 33.074312 33.091590 33.108818 33.125989 33.143086 33.160101
33.177017 33.193826 33.210509 33.227057 33.243450 33.259679 33.275724 33.291573
33.307207 33.322615 33.337775 33.352677 33.367299 33.381629 33.395648 33.409341
33.422691 33.435683 33.448300 33.460527 33.472347 33.483747 33.494711 33.505224
33.515273 33.524845 33.533924 33.542501 33.550563 33.558098 33.565095 33.571546
33.577440 33.582770 33.587528 33.591706 33.595299 33.598302 33.600710 33.602520
33.603728 33.604335 33.604337 33.603737 33.602534 33.600731 33.598329 33.595334
33.591749 33.587579 33.582831 33.577512 33.571629 33.565191 33.558208 33.550689
33.542645 33.534087 33.525029 33.515481 33.505458 33.494972 33.484038 33.472671
33.460886 33.448698 33.436122 33.423175 33.409872 33.396230 33.382266 33.367994
33.353433 33.338598 33.323507 33.308175 33.292619 33.276853 33.260896 33.244760
33.228464 33.212019 33.195443 33.178748 33.161950 33.145059 33.128092 33.111058
33.093972 33.076841 33.059682 33.042500 33.025308 33.008114 32.990928 32.973756
32.956608 32.939490 32.922409 32.905370 32.888380 32.871442 32.854563 32.837744
32.820990 32.804303 32.787686 32.771139 32.754667 32.738267 32.721941 32.705689
32.689512 32.673406 32.657372 32.641408 32.625512 32.609681 32.593914 32.578207
32.562557 32.546961 32.531415 32.515915 32.500458 32.485038 32.469652 32.454294
32.438962 32.423648 32.408350 32.393061 32.377778
32.755556 32.787032 32.818517 32.850021 32.881553 32.913121 32.944735 32.976403
33.008134 33.039935 33.071815 33.103780 33.135840 33.167998 33.200263 33.232638
33.265130 33.297742 33.330480 33.363344 33.396339 33.429465 33.462724 33.496115
33.529639 33.563291 33.597073 33.630976 33.665002 33.699139 33.733386 33.767731
33.802170 33.836688 33.871281 33.905930 33.940628 33.975357 34.010105 34.044852
34.079586 34.114283 34.148928 34.183496 34.217970 34.252323 34.286535 34.320578
34.354431 34.388061 34.421447 34.454556 34.487363 34.519834 34.551944 34.583657
34.614947 34.645776 34.676118 34.705935 34.735201 34.763876 34.791933 34.819335
34.846054 34.872053 34.897305 34.921773 34.945432 34.968245 34.990189 35.011229
35.031342 35.050497 35.068671 35.085836 35.101971 35.117051 35.131057 35.143968
35.155766 35.166433 35.175955 35.184318 35.191509 35.197519 35.202339 35.205960
35.208380 35.209593 35.209599 35.208397 35.205989 35.202380 35.197574 35.191579
35.184402 35.176057 35.166554 35.155908 35.144133 35.131249 35.117272 35.102224
35.086123 35.068997 35.050866 35.031758 35.011696 34.990711 34.968828 34.946080
34.922492 34.898100 34.872931 34.847021 34.820397 34.793097 34.765149 34.736590
34.707449 34.677764 34.647562 34.616881 34.585749 34.554202 34.522268 34.489982
34.457370 34.424466 34.391296 34.357892 34.324277 34.290483 34.256530 34.222449
34.188259 34.153988 34.119651 34.085276 34.050877 34.016478 33.982091 33.947738
33.913429 33.879184 33.845009 33.810923 33.776931 33.743048 33.709278 33.675633
33.642115 33.608734 33.575490 33.542392 33.509438 33.476633 33.443974 33.411465
33.379102 33.346886 33.314812 33.282880 33.251082 33.219417 33.187877 33.156460
33.125155 33.093959 33.062863 33.031860 33.000941 32.970098 32.939322 32.908605
32.877935 32.847306 32.816706 32.786126 32.755556
33.133333 33.180556 33.227792 33.275057 33.322362 33.369724 33.417153 33.464664
33.512269 33.559981 33.607811 33.655771 33.703869 33.752119 33.800525 33.849102
33.897851 33.946784 33.995902 34.045215 34.094720 34.144426 34.194329 34.244435
34.294736 34.345236 34.395925 34.446804 34.497860 34.549091 34.600481 34.652027
34.703706 34.755514 34.807425 34.859431 34.911503 34.963630 35.015779 35.067936
35.120065 35.172148 35.224147 35.276038 35.327782 35.379353 35.430706 35.481814
35.532628 35.583119 35.633236 35.682945 35.732194 35.780948 35.829153 35.876770
35.923744 35.970036 36.015590 36.060364 36.104302 36.147362 36.189488 36.230638
36.270756 36.309800 36.347716 36.384462 36.419986 36.454249 36.487199 36.518798
36.549000 36.577768 36.605059 36.630840 36.655069 36.677718 36.698751 36.718142
36.735859 36.751881 36.766180 36.778741 36.789541 36.798567 36.805805 36.811245
36.814879 36.816701 36.816710 36.814904 36.811289 36.805867 36.798649 36.789645
36.778868 36.766334 36.752062 36.736073 36.718391 36.699039 36.678049 36.655448
36.631271 36.605549 36.578322 36.549624 36.519498 36.487982 36.455123 36.420959
36.385541 36.348910 36.311118 36.272207 36.232232 36.191235 36.149273 36.106387
36.062635 36.018059 35.972715 35.926646 35.879908 35.832540 35.784599 35.736123
35.687166 35.637764 35.587971 35.537820 35.487362 35.436627 35.385664 35.334501
35.283184 35.231736 35.180201 35.128601 35.076974 35.025339 34.973732 34.922168
34.870680 34.819279 34.767995 34.716836 34.665827 34.614974 34.564300 34.513806
34.463512 34.413417 34.363536 34.313867 34.264420 34.215193 34.166191 34.117410
34.068853 34.020513 33.972391 33.924477 33.876770 33.829259 33.781940 33.734801
33.687836 33.641030 33.594378 33.547863 33.501476 33.455202 33.409031 33.362946
33.316935 33.270982 33.225075 33.179196 33.133333
33.511111 33.574090 33.637088 33.700122 33.763213 33.826376 33.889633 33.952997
34.016489 34.080121 34.143914 34.207877 34.272030 34.336381 34.400948 34.465736
34.530761 34.596026 34.661546 34.727319 34.793357 34.859658 34.926229 34.993064
35.060170 35.127533 35.195160 35.263032 35.331150 35.399495 35.468064 35.536830
35.605788 35.674908 35.744179 35.813566 35.883055 35.952608 36.022204 36.091800
36.161373 36.230874 36.300276 36.369526 36.438593 36.507418 36.575967 36.644178
36.712011 36.779402 36.846307 36.912659 36.978410 37.043490 37.107850 37.171416
37.234136 37.295936 37.356762 37.416538 37.475210 37.532701 37.588956 37.643898
37.697473 37.749606 37.800242 37.849309 37.896753 37.942504 37.986512 38.028709
38.069047 38.107464 38.143915 38.178343 38.210706 38.240953 38.269047 38.294943
38.318608 38.340005 38.359106 38.375881 38.390307 38.402362 38.412030 38.419295
38.424149 38.426583 38.426594 38.424183 38.419353 38.412113 38.402472 38.390446
38.376051 38.359311 38.340248 38.318894 38.295275 38.269431 38.241395 38.211212
38.178919 38.144569 38.108203 38.069879 38.029643 37.987557 37.943670 37.898050
37.850748 37.801835 37.751364 37.699408 37.646024 37.591285 37.535249 37.477991
37.419567 37.360055 37.299509 37.238006 37.175600 37.112367 37.048358 36.983649
36.918287 36.852346 36.785872 36.718934 36.651575 36.583862 36.515833 36.447552
36.379053 36.310396 36.241612 36.172754 36.103850 36.034950 35.966077 35.897276
35.828565 35.759985 35.691549 35.623295 35.555231 35.487389 35.419774 35.352414
35.285310 35.218484 35.151935 35.085679 35.019713 34.954049 34.888679 34.823613
34.758839 34.694363 34.630172 34.566266 34.502630 34.439264 34.376148 34.313278
34.250636 34.188213 34.125990 34.063954 34.002087 33.940374 33.878795 33.817334
33.755971 33.694686 33.633461 33.572276 33.511111
33.888889 33.967637 34.046409 34.125227 34.204115 34.283097 34.362192 34.441426
34.520816 34.600388 34.680155 34.760143 34.840363 34.920838 35.001577 35.082601
35.163916 35.245540 35.327476 35.409739 35.492328 35.575255 35.658513 35.742113
35.826042 35.910308 35.994893 36.079800 36.165006 36.250510 36.336283 36.422319
36.508584 36.595068 36.681731 36.768556 36.855497 36.942534 37.029615 37.116713
37.203771 37.290756 37.377606 37.464283 37.550719 37.636871 37.722665 37.808054
37.892959 37.977327 38.061076 38.144149 38.226459 38.307945 38.388518 38.468114
38.546640 38.624030 38.700189 38.775050 38.848516 38.920518 38.990961 39.059776
39.126867 39.192166 39.255580 39.317041 39.376460 39.433771 39.488888 39.541749
39.592273 39.640400 39.686056 39.729187 39.769724 39.807618 39.842809 39.875252
39.904897 39.931704 39.955631 39.976647 39.994719 40.009822 40.021933 40.031036
40.037116 40.040166 40.040180 40.037159 40.031109 40.022037 40.009960 39.994892
39.976860 39.955887 39.932008 39.905254 39.875668 39.843290 39.808171 39.770357
39.729908 39.686874 39.641324 39.593313 39.542917 39.490195 39.435229 39.378082
39.318841 39.257571 39.194364 39.129287 39.062433 38.993874 38.923703 38.851992
38.778836 38.704306 38.628497 38.551478 38.473345 38.394165 38.314031 38.233007
38.151185 38.068625 37.985415 37.901613 37.817302 37.732534 37.647391 37.561918
37.476193 37.390256 37.304178 37.217997 37.131776 37.045548 36.959372 36.873273
36.787305 36.701489 36.615871 36.530468 36.445321 36.360439 36.275859 36.191586
36.107650 36.024050 35.940812 35.857931 35.775426 35.693290 35.611535 35.530150
35.449144 35.368502 35.288227 35.208302 35.128726 35.049478 34.970554 34.891931
34.813601 34.735539 34.657734 34.580160 34.502802 34.425633 34.348636 34.271784
34.195056 34.118427 34.041873 33.965368 33.888889
34.266667 34.361201 34.455763 34.550381 34.645085 34.739899 34.834853 34.929971
35.025282 35.120807 35.216574 35.312600 35.408914 35.505528 35.602469 35.699745
35.797382 35.895384 35.993771 36.092544 36.191721 36.291295 36.391283 36.491671
36.592471 36.693665 36.795259 36.897229 36.999576 37.102270 37.205306 37.308647
37.412283 37.516169 37.620291 37.724595 37.829060 37.933627 38.038269 38.142918
38.247541 38.352064 38.456446 38.560607 38.664501 38.768040 38.871171 38.973802
39.075873 39.177286 39.277976 39.377840 39.476809 39.574774 39.671662 39.767363
39.861797 39.954851 40.046446 40.136466 40.224828 40.311418 40.396150 40.478912
40.559617 40.638156 40.714442 40.788369 40.859854 40.928792 40.995104 41.058692
41.119481 41.177378 41.232313 41.284200 41.332977 41.378567 41.420911 41.459944
41.495616 41.527868 41.556661 41.581947 41.603693 41.621866 41.636440 41.647392
41.654709 41.658378 41.658395 41.654761 41.647480 41.636565 41.622031 41.603902
41.582203 41.556969 41.528234 41.496045 41.460444 41.421489 41.379231 41.333738
41.285066 41.233295 41.178488 41.120731 41.060095 40.996674 40.930543 40.861802
40.790530 40.716833 40.640794 40.562522 40.482102 40.399647 40.315242 40.229002
40.141011 40.051387 39.960212 39.867603 39.773641 39.678439 39.582078 39.484668
39.386284 39.287036 39.186992 39.086259 38.984900 38.883015 38.780664 38.677941
38.574899 38.471626 38.368171 38.264613 38.160994 38.057390 37.953833 37.850392
37.747094 37.644001 37.541134 37.438545 37.336250 37.234296 37.132691 37.031475
36.930650 36.830250 36.730271 36.630740 36.531650 36.433019 36.334836 36.237113
36.139836 36.043009 35.946615 35.850654 35.755104 35.659960 35.565198 35.470808
35.376763 35.283049 35.189638 35.096512 35.003641 34.911003 34.818568 34.726312
34.634202 34.542214 34.450314 34.358475 34.266667
34.644444 34.754783 34.865155 34.975594 35.086131 35.196800 35.307631 35.418658
35.529907 35.641412 35.753196 35.865291 35.977716 36.090503 36.203665 36.317231
36.431210 36.545629 36.660490 36.775816 36.891605 37.007876 37.124619 37.241848
37.359548 37.477727 37.596363 37.715459 37.834983 37.954935 38.075274 38.195992
38.317042 38.438409 38.560037 38.681903 38.803944 38.926131 39.048390 39.170684
39.292933 39.415093 39.537073 39.658823 39.780244 39.901279 40.021822 40.141807
40.261123 40.379696 40.497410 40.614185 40.729897 40.844463 40.957754 41.069682
41.180114 41.288957 41.396079 41.501382 41.604732 41.706030 41.805143 41.901970
41.996380 42.088274 42.177521 42.264024 42.347658 42.428330 42.505918 42.580332
42.651461 42.719218 42.783500 42.844228 42.901307 42.954665 43.004219 43.049905
43.091650 43.129401 43.163097 43.192694 43.218145 43.239416 43.256472 43.269292
43.277855 43.282150 43.282170 43.277916 43.269395 43.256619 43.239609 43.218389
43.192994 43.163457 43.129829 43.092152 43.050489 43.004894 42.955442 42.902195
42.845240 42.784648 42.720515 42.652921 42.581971 42.507751 42.430375 42.349933
42.266547 42.180312 42.091354 41.999771 41.905695 41.809224 41.710493 41.609602
41.506686 41.401845 41.295213 41.186889 41.077008 40.965662 40.852986 40.739068
40.624038 40.507981 40.391022 40.273240 40.154755 40.035640 39.916007 39.795924
39.675497 39.554784 39.433885 39.312851 39.191774 39.070698 38.949705 38.828832
38.708154 38.587700 38.467535 38.347682 38.228197 38.109096 37.990428 37.872200
37.754453 37.637188 37.520439 37.404200 37.288496 37.173317 37.058680 36.944570
36.830998 36.717942 36.605408 36.493371 36.381828 36.270751 36.160133 36.049942
35.940166 35.830770 35.721737 35.613032 35.504632 35.396501 35.288612 35.180929
35.073422 34.966053 34.858792 34.751600 34.644444
35.022222 35.148388 35.274593 35.400873 35.527268 35.653813 35.780548 35.907504
36.034721 36.162226 36.290060 36.418245 36.546818 36.675798 36.805221 36.935099
37.065465 37.196325 37.327709 37.459616 37.592071 37.725067 37.858624 37.992727
38.127390 38.262591 38.398338 38.534599 38.671376 38.808629 38.946352 39.084496
39.223048 39.361949 39.501177 39.640664 39.780382 39.920250 40.060233 40.200242
40.340230 40.480100 40.619797 40.759214 40.898288 41.036902 41.174986 41.312415
41.449110 41.584938 41.719813 41.853597 41.986194 42.117462 42.247299 42.375557
42.502132 42.626870 42.749663 42.870356 42.988837 43.104952 43.218586 43.329586
43.437838 43.543191 43.645531 43.744712 43.840624 43.933124 44.022108 44.107440
44.189020 44.266723 44.340455 44.410100 44.475572 44.536768 44.593611 44.646010
44.693897 44.737196 44.775851 44.809799 44.838996 44.863394 44.882961 44.897666
44.907490 44.912416 44.912439 44.907559 44.897784 44.883129 44.863616 44.839276
44.810142 44.776264 44.737686 44.694472 44.646679 44.594385 44.537657 44.476589
44.411258 44.341768 44.268207 44.190691 44.109315 44.024205 43.935463 43.843225
43.747598 43.648723 43.546713 43.441716 43.333845 43.223253 43.110054 42.994405
42.876420 42.756254 42.634022 42.509877 42.383932 42.256338 42.127203 41.996676
41.864858 41.731896 41.597883 41.462960 41.327214 41.190780 41.053736 40.916209
40.778271 40.640039 40.501577 40.362994 40.224345 40.085729 39.947193 39.808826
39.670666 39.532793 39.395237 39.258067 39.121304 38.985009 38.849195 38.713913
38.579167 38.445000 38.311408 38.178426 38.046044 37.914286 37.783136 37.652611
37.522690 37.393381 37.264657 37.136520 37.008939 36.881909 36.755394 36.629383
36.503839 36.378742 36.254054 36.129752 36.005793 35.882150 35.758781 35.635653
35.512723 35.389956 35.267310 35.144746 35.022222
35.400000 35.542019 35.684080 35.826229 35.968506 36.110956 36.253617 36.396534
36.539741 36.683283 36.827189 36.971502 37.116247 37.261465 37.407173 37.553412
37.700190 37.847545 37.995480 38.144026 38.293178 38.442963 38.593369 38.744415
38.896080 39.048379 39.201279 39.354788 39.508865 39.663509 39.818669 39.974335
40.130446 40.286984 40.443876 40.601095 40.758558 40.916227 41.074010 41.231857
41.389666 41.547378 41.704880 41.862103 42.018923 42.175263 42.330988 42.486011
42.640190 42.793428 42.945575 43.096526 43.246123 43.394255 43.540757 43.685511
43.828349 43.969148 44.107735 44.243983 44.377719 44.508813 44.637092 44.762425
44.884640 45.003608 45.119159 45.231168 45.339470 45.443943 45.544430 45.640813
45.732946 45.820718 45.903992 45.982666 46.056615 46.125749 46.189955 46.249152
46.303244 46.352163 46.395828 46.434183 46.467164 46.494730 46.516834 46.533449
46.544546 46.550112 46.550138 46.544625 46.533582 46.517024 46.494980 46.467480
46.434570 46.396294 46.352716 46.303893 46.249906 46.190827 46.126751 46.057762
45.983971 45.905472 45.822390 45.734828 45.642925 45.546792 45.446577 45.342400
45.234417 45.122754 45.007574 44.889005 44.767219 44.642345 44.514557 44.383986
44.250808 44.115153 43.977196 43.837065 43.694935 43.550928 43.405216 43.257917
43.109198 42.959169 42.807993 42.655772 42.502662 42.348756 42.194202 42.039085
41.883543 41.727653 41.571542 41.415276 41.258974 41.102693 40.946539 40.790559
40.634849 40.479446 40.324435 40.169844 40.015746 39.862160 39.709149 39.556722
39.404932 39.253778 39.103304 38.953502 38.804404 38.655997 38.508301 38.361296
38.214997 38.069374 37.924434 37.780144 37.636501 37.493468 37.351034 37.209159
37.067825 36.926988 36.786625 36.646689 36.507152 36.367965 36.229095 36.090492
35.952120 35.813928 35.675876 35.537914 35.400000
35.777778 35.935676 36.093623 36.251667 36.409856 36.568237 36.726858 36.885761
37.044996 37.204599 37.364619 37.525087 37.686049 37.847531 38.009576 38.172202
38.335451 38.499330 38.663878 38.829096 38.995014 39.161625 39.328954 39.496984
39.665733 39.835173 40.005317 40.176123 40.347597 40.519687 40.692388 40.865638
41.039420 41.213663 41.388340 41.563364 41.738701 41.914252 42.089970 42.265746
42.441519 42.617170 42.792628 42.967760 43.142486 43.316660 43.490192 43.662926
43.834761 44.005531 44.175127 44.343373 44.510152 44.675280 44.838631 45.000017
45.159305 45.316302 45.470870 45.622814 45.771990 45.918204 46.061310 46.201114
46.337471 46.470190 46.599126 46.724093 46.844952 46.961522 47.073668 47.181221
47.284052 47.382003 47.474952 47.562756 47.645303 47.722462 47.794136 47.860209
47.920596 47.975199 48.023946 48.066759 48.103580 48.134350 48.159029 48.177575
48.189965 48.196178 48.196207 48.190052 48.177723 48.159241 48.134630 48.103933
48.067191 48.024466 47.975815 47.921319 47.861050 47.795108 47.723579 47.646580
47.564209 47.476601 47.383864 47.286147 47.183571 47.076297 46.964453 46.848211
46.727707 46.603123 46.474600 46.342325 46.206444 46.067150 45.924589 45.778957
45.630400 45.479116 45.325248 45.168992 45.010490 44.849935 44.687461 44.523258
44.357455 44.190234 44.021715 43.852076 43.681427 43.509936 43.337704 43.164889
42.991583 42.817933 42.644019 42.469977 42.295876 42.121842 41.947932 41.774259
41.600869 41.427863 41.255276 41.083198 40.911652 40.740715 40.570402 40.400776
40.231843 40.063655 39.896208 39.729543 39.563647 39.398550 39.234233 39.070714
38.907967 38.746000 38.584781 38.424310 38.264547 38.105486 37.947081 37.789317
37.632147 37.475547 37.319466 37.163875 37.008721 36.853969 36.699563 36.545465
36.391618 36.237978 36.084491 35.931109 35.777778
36.155556 36.329364 36.503226 36.677197 36.851327 37.025673 37.200282 37.375211
37.550501 37.726208 37.902369 38.079039 38.256247 38.434046 38.612457 38.791531
38.971280 39.151750 39.332945 39.514906 39.697628 39.881143 40.065438 40.250538
40.436418 40.623095 40.810533 40.998740 41.187668 41.377315 41.567621 41.758574
41.950100 42.142176 42.334716 42.527685 42.720982 42.914562 43.108310 43.302168
43.496010 43.689763 43.883288 44.076502 44.269251 44.461441 44.652906 44.843538
45.033162 45.221660 45.408843 45.594586 45.778690 45.961019 46.141369 46.319594
46.495485 46.668889 46.839594 47.007441 47.172214 47.333754 47.491844 47.646322
47.796975 47.943641 48.086111 48.224226 48.357785 48.486633 48.610576 48.729467
48.843125 48.951410 49.054154 49.151228 49.242479 49.327790 49.407026 49.480083
49.546844 49.607221 49.661116 49.708457 49.749168 49.783194 49.810480 49.830989
49.844687 49.851558 49.851590 49.844784 49.831153 49.810714 49.783503 49.749557
49.708935 49.661689 49.607901 49.547642 49.481011 49.408098 49.329022 49.243887
49.152831 49.055970 48.953462 48.845433 48.732057 48.613471 48.489861 48.361374
48.228206 48.090512 47.948496 47.802318 47.652189 47.498272 47.340782 47.179881
47.015790 46.848667 46.678733 46.506144 46.331118 46.153806 45.974421 45.793110
45.610078 45.425463 45.239464 45.052211 44.863892 44.674625 44.484591 44.293896
44.102709 43.911124 43.719297 43.527313 43.335313 43.143369 42.951610 42.760095
42.568941 42.378192 42.187953 41.998257 41.809193 41.620784 41.433105 41.246169
41.060037 40.874711 40.690241 40.506617 40.323878 40.142006 39.961026 39.780913
39.601682 39.423299 39.245768 39.069049 38.893138 38.717988 38.543586 38.369880
38.196848 38.024436 37.852613 37.681323 37.510529 37.340171 37.170207 37.000576
36.831231 36.662111 36.493164 36.324331 36.155556
36.533333 36.723084 36.912895 37.102823 37.292931 37.483273 37.673910 37.864892
38.056281 38.248122 38.440474 38.633375 38.826884 39.021030 39.215870 39.411422
39.607741 39.804836 40.002754 40.201497 40.401105 40.601568 40.802918 41.005136
41.208245 41.412213 41.617053 41.822720 42.029219 42.236491 42.444528 42.653258
42.862663 43.072655 43.283204 43.494207 43.705620 43.917328 44.129273 44.341323
44.553407 44.765381 44.977159 45.188580 45.399548 45.609888 45.819488 46.028163
46.235787 46.442161 46.647151 46.850546 47.052200 47.251893 47.449469 47.644701
47.837425 48.027409 48.214480 48.398404 48.579004 48.756043 48.929342 49.098666
49.263836 49.424618 49.580837 49.732264 49.878727 50.020009 50.155942 50.286320
50.410984 50.529741 50.642444 50.748914 50.849016 50.942591 51.029518 51.109657
51.182902 51.249133 51.308265 51.360199 51.404867 51.442195 51.472134 51.494633
51.509664 51.517202 51.517237 51.509770 51.494813 51.472390 51.442533 51.405294
51.360722 51.308894 51.249878 51.183775 51.110673 51.030692 50.943939 50.850557
50.750666 50.644430 50.531984 50.413508 50.289150 50.159106 50.023536 49.882648
49.736610 49.585643 49.429920 49.269670 49.105072 48.936360 48.763714 48.587373
48.407516 48.224383 48.038151 47.849058 47.657276 47.463041 47.266517 47.067934
46.867449 46.665284 46.461587 46.256569 46.050368 45.843184 45.635143 45.426435
45.217170 45.007526 44.797600 44.587557 44.377481 44.167520 43.957745 43.748291
43.539214 43.330634 43.122595 42.915200 42.708481 42.502527 42.297356 42.093043
41.889595 41.687072 41.485470 41.284836 41.085155 40.886460 40.688728 40.491979
40.296181 40.101344 39.907426 39.714427 39.522299 39.331031 39.140568 38.950892
38.761943 38.573692 38.386078 38.199063 38.012584 37.826595 37.641032 37.455843
37.270963 37.086336 36.901896 36.717583 36.533333
36.911111 37.116839 37.322632 37.528556 37.734673 37.941051 38.147746 38.354828
38.562347 38.770371 38.978945 39.188134 39.397975 39.608532 39.819832 40.031934
40.244857 40.458654 40.673335 40.888945 41.105482 41.322985 41.541441 41.760879
41.981272 42.202640 42.424944 42.648193 42.872331 43.097358 43.323204 43.549854
43.777222 44.005283 44.233935 44.463136 44.692769 44.922780 45.153034 45.383462
45.613913 45.844304 46.074467 46.304304 46.533633 46.762340 46.990229 47.217171
47.442956 47.667443 47.890408 48.111697 48.331076 48.548380 48.763365 48.975854
49.185598 49.392413 49.596041 49.796294 49.992912 50.185700 50.374401 50.558816
50.738691 50.913829 51.083978 51.248948 51.408493 51.562428 51.710519 51.852588
51.988416 52.117835 52.240641 52.356679 52.465764 52.567755 52.662488 52.749840
52.829666 52.901863 52.966311 53.022925 53.071610 53.112302 53.144934 53.169462
53.185845 53.194063 53.194101 53.185961 53.169658 53.145213 53.112671 53.072074
53.023494 52.966995 52.902673 52.830616 52.750944 52.663764 52.569220 52.467437
52.358583 52.242798 52.120270 51.991155 51.855659 51.713952 51.566254 51.412746
51.253662 51.089191 50.919578 50.745017 50.565761 50.382008 50.194016 50.001983
49.806171 49.606774 49.404055 49.198204 48.989481 48.778071 48.564226 48.348124
48.130011 47.910054 47.688489 47.465472 47.241228 47.015900 46.789701 46.562760
46.335277 46.107364 45.879208 45.650908 45.422634 45.194468 44.966566 44.738995
44.511895 44.285318 44.059386 43.834138 43.609681 43.386038 43.163300 42.941478
42.720647 42.500805 42.282012 42.064255 41.847578 41.631958 41.417426 41.203948
40.991542 40.780165 40.569823 40.360466 40.152087 39.944630 39.738077 39.532367
39.327473 39.123327 38.919893 38.717103 38.514911 38.313246 38.112056 37.911269
37.710826 37.510655 37.310692 37.110867 36.911111
37.288889 37.510630 37.732443 37.954396 38.176564 38.399010 38.621811 38.845024
39.068724 39.292963 39.517815 39.743325 39.969562 40.196563 40.424394 40.653082
40.882687 41.113227 41.344755 41.577277 41.810838 42.045432 42.281096 42.517809
42.755600 42.994433 43.234324 43.475224 43.717138 43.959998 44.203799 44.448455
44.693946 44.940172 45.187098 45.434604 45.682640 45.931071 46.179829 46.428763
46.677788 46.926734 47.175502 47.423904 47.671824 47.919059 48.165477 48.410857
48.655054 48.897832 49.139031 49.378403 49.615774 49.850884 50.083548 50.313497
50.540535 50.764387 50.984848 51.201638 51.414548 51.623296 51.827667 52.027382
52.222227 52.411924 52.596261 52.774970 52.947842 53.114619 53.275100 53.429039
53.576247 53.716493 53.849601 53.975358 54.093603 54.204146 54.306841 54.401522
54.488063 54.566322 54.636193 54.697563 54.750347 54.794460 54.829840 54.856429
54.874193 54.883101 54.883142 54.874318 54.856641 54.830142 54.794858 54.750850
54.698179 54.636933 54.567198 54.489090 54.402716 54.308220 54.205729 54.095411
53.977414 53.851930 53.719122 53.579204 53.432354 53.278804 53.118747 52.952430
52.780054 52.601882 52.418122 52.229046 52.034868 51.835866 51.632257 51.424324
51.212280 50.996412 50.776929 50.554116 50.328176 50.099390 49.867953 49.634137
49.398129 49.160192 48.920500 48.679304 48.436766 48.193124 47.948526 47.703193
47.457259 47.210930 46.964323 46.717629 46.470947 46.224451 45.978224 45.732422
45.487113 45.242434 44.998437 44.755242 44.512885 44.271469 44.031015 43.791609
43.553257 43.316029 43.079918 42.844978 42.611190 42.378593 42.147155 41.916900
41.687789 41.459832 41.232978 41.007226 40.782517 40.558838 40.336124 40.114349
39.893445 39.673374 39.454065 39.235470 39.017515 38.800146 38.583284 38.366869
38.150822 37.935077 37.719554 37.504184 37.288889
37.666667 37.904459 38.142328 38.380353 38.618605 38.857167 39.096105 39.335501
39.575414 39.815926 40.057090 40.298983 40.541650 40.785166 41.029565 41.274917
41.521246 41.768614 42.017035 42.266563 42.517199 42.768988 43.021917 43.276021
43.531272 43.787696 44.045245 44.303935 44.563702 44.824547 45.086390 45.349217
45.612929 45.877497 46.142804 46.408805 46.675364 46.942418 47.209813 47.477468
47.745210 48.012941 48.280469 48.547678 48.814357 49.080374 49.345499 49.609583
49.872381 50.133726 50.393358 50.651097 50.906667 51.159874 51.410434 51.658137
51.902691 52.143878 52.381398 52.615024 52.844454 53.069456 53.289727 53.505032
53.715071 53.919610 54.118355 54.311076 54.497487 54.677365 54.850437 55.016490
55.175265 55.326564 55.470146 55.605827 55.733388 55.852663 55.963458 56.065625
56.158996 56.243448 56.318838 56.385066 56.442022 56.489628 56.527806 56.556502
56.575670 56.585284 56.585329 56.575805 56.556730 56.528131 56.490058 56.442564
56.385730 56.319635 56.244391 56.160102 56.066910 55.964940 55.854365 55.735331
55.608037 55.472648 55.329388 55.178440 55.020048 54.854413 54.681795 54.502409
54.316531 54.124385 53.926259 53.722385 53.513060 53.298518 53.079065 52.854934
52.626433 52.393794 52.157323 51.917247 51.673870 51.427411 51.178166 50.926345
50.672235 50.416033 50.158015 49.898364 49.637344 49.375122 49.111946 48.847966
48.583416 48.318427 48.053215 47.787895 47.522664 47.257619 46.992938 46.728700
46.465064 46.202092 45.939923 45.678603 45.418251 45.158896 44.900640 44.643496
44.387548 44.132793 43.879297 43.627046 43.376087 43.126393 42.877997 42.630859
42.384997 42.140361 41.896954 41.654719 41.413643 41.173662 40.934753 40.696843
40.459897 40.223838 39.988622 39.754167 39.520419 39.287294 39.054731 38.822643
38.590962 38.359602 38.128488 37.897536 37.666667
38.044444 38.298327 38.552294 38.806426 39.060809 39.315521 39.570647 39.826259
40.082442 40.339260 40.596798 40.855110 41.114278 41.374345 41.635391 41.897446
42.160585 42.424826 42.690235 42.956820 43.224635 43.493675 43.763985 44.035543
44.308383 44.582466 44.857815 45.134373 45.412148 45.691065 45.971118 46.252213
46.534327 46.817346 47.101231 47.385849 47.671140 47.956951 48.243206 48.529731
48.816428 49.103105 49.389645 49.675835 49.961539 50.246523 50.530634 50.813620
51.095309 51.375431 51.653798 51.930123 52.204202 52.475736 52.744506 53.010202
53.272592 53.531357 53.786256 54.036965 54.283236 54.524740 54.761226 54.992367
55.217911 55.437534 55.650987 55.857954 56.058191 56.251395 56.437329 56.615707
56.786305 56.948853 57.103142 57.248925 57.386011 57.514178 57.633255 57.743046