# vtk DataFile Version 3.0
Steady-state temperature (Jacobi)
ASCII
DATASET STRUCTURED_POINTS
DIMENSIONS 181 181 1
ORIGIN 0.0 0.0 0.0
SPACING 0.05 0.05 1.0
POINT_DATA 32761
SCALARS Temperature float 1
LOOKUP_TABLE default
32.000000 32.000000 32.000000 32.000000 32.000000 32.000000 32.000000 32.000000
32.000000 32.000000 32.000000 32.000000 32.000000 32.000000 32.000000 32.000000
32.000000 32.000000 32.000000 32.000000 32.000000 32.000000 32.000000 32.000000
32.000000 32.000000 32.000000 32.000000 32.000000 32.000000 32.000000 32.000000
32.000000 32.000000 32.000000 32.000000 32.000000 32.000000 32.000000 32.000000
32.000000 32.000000 32.000000 32.000000 32.000000 32.000000 32.000000 32.000000
32.000000 32.000000 32.000000 32.000000 32.000000 32.000000 32.000000 32.000000
32.000000 32.000000 32.000000 32.000000 32.000000 32.000000 32.000000 32.000000
32.000000 32.000000 32.000000 32.000000 32.000000 32.000000 32.000000 32.000000
32.000000 32.000000 32.000000 32.000000 32.000000 32.000000 32.000000 32.000000
32.000000 32.000000 32.000000 32.000000 32.000000 32.000000 32.000000 32.000000
32.000000 32.000000 32.000000 32.000000 32.000000 32.000000 32.000000 32.000000
32.000000 32.000000 32.000000 32.000000 32.000000 32.000000 32.000000 32.000000
32.000000 32.000000 32.000000 32.000000 32.000000 32.000000 32.000000 32.000000
32.000000 32.000000 32.000000 32.000000 32.000000 32.000000 32.000000 32.000000
32.000000 32.000000 32.000000 32.000000 32.000000 32.000000 32.000000 32.000000
32.000000 32.000000 32.000000 32.000000 32.000000 32.000000 32.000000 32.000000
32.000000 32.000000 32.000000 32.000000 32.000000 32.000000 32.000000 32.000000
32.000000 32.000000 32.000000 32.000000 32.000000 32.000000 32.000000 32.000000
32.000000 32.000000 32.000000 32.000000 32.000000 32.000000 32.000000 32.000000
32.000000 32.000000 32.000000 32.000000 32.000000 32.000000 32.000000 32.000000
32.000000 32.000000 32.000000 32.000000 32.000000 32.000000 32.000000 32.000000
32.000000 32.000000 32.000000 32.000000 32.000000
32.377778 32.389869 32.401967 32.414081 32.426217 32.438384 32.450588 32.462837
32.475136 32.487496 32.499919 32.512415 32.524988 32.537646 32.550391 32.563233
32.576172 32.589218 32.602369 32.615635 32.629013 32.642512 32.656129 32.669871
32.683733 32.697722 32.711834 32.726072 32.740430 32.754913 32.769513 32.784232
32.799061 32.814003 32.829045 32.844190 32.859424 32.874747 32.890146 32.905618
32.921148 32.936734 32.952359 32.968018 32.983693 32.999379 33.015057 33.030720
33.046347 33.061932 33.077451 33.092897 33.108247 33.123492 33.138608 33.153585
33.168398 33.183037 33.197478 33.211708 33.225704 33.239454 33.252932 33.266128
33.279016 33.291584 33.303810 33.315680 33.327173 33.338275 33.348966 33.359234
33.369059 33.378429 33.387327 33.395741 33.403655 33.411059 33.417939 33.424285
33.430086 33.435333 33.440017 33.444131 33.447666 33.450619 33.452982 33.454754
33.455930 33.456510 33.456490 33.455873 33.454659 33.452849 33.450448 33.447458
33.443886 33.439736 33.435017 33.429735 33.423901 33.417521 33.410610 33.403175
33.395232 33.386790 33.377866 33.368471 33.358623 33.348334 33.337623 33.326503
33.314996 33.303113 33.290877 33.278301 33.265408 33.252211 33.238734 33.224988
33.211000 33.196781 33.182355 33.167735 33.152944 33.137994 33.122910 33.107701
33.092392 33.076991 33.061522 33.045994 33.030428 33.014832 32.999227 32.983619
32.968029 32.952461 32.936935 32.921454 32.906035 32.890682 32.875409 32.860219
32.845127 32.830131 32.815246 32.800469 32.785814 32.771277 32.756868 32.742584
32.728435 32.714414 32.700530 32.686776 32.673159 32.659673 32.646321 32.633096
32.620002 32.607030 32.594183 32.581451 32.568836 32.556328 32.543926 32.531622
32.519413 32.507290 32.495250 32.483283 32.471386 32.459548 32.447766 32.436029
32.424332 32.412666 32.401023 32.389397 32.377778
32.755556 32.779743 32.803946 32.828179 32.852458 32.876797 32.901211 32.925713
32.950321 32.975043 32.999899 33.024895 33.050050 33.075369 33.100870 33.126558
33.152448 33.178542 33.204858 33.231393 33.258163 33.285165 33.312412 33.339900
33.367640 33.395623 33.423862 33.452343 33.481077 33.510049 33.539266 33.568711
33.598388 33.628278 33.658383 33.688680 33.719170 33.749824 33.780644 33.811597
33.842681 33.873862 33.905135 33.936464 33.967839 33.999222 34.030604 34.061941
34.093222 34.124404 34.155469 34.186375 34.217102 34.247605 34.277864 34.307831
34.337485 34.366778 34.395686 34.424162 34.452181 34.479694 34.506677 34.533082
34.558884 34.584035 34.608511 34.632265 34.655273 34.677491 34.698895 34.719444
34.739113 34.757866 34.775679 34.792518 34.808362 34.823180 34.836954 34.849655
34.861269 34.871771 34.881148 34.889380 34.896459 34.902368 34.907101 34.910647
34.913002 34.914161 34.914122 34.912887 34.910456 34.906834 34.902026 34.896043
34.888891 34.880586 34.871139 34.860568 34.848887 34.836120 34.822282 34.807403
34.791500 34.774606 34.756739 34.737937 34.718221 34.697630 34.676188 34.653935
34.630897 34.607117 34.582621 34.557455 34.531644 34.505235 34.478254 34.450749
34.422746 34.394293 34.365414 34.336159 34.306551 34.276638 34.246442 34.216011
34.185365 34.154550 34.123586 34.092516 34.061358 34.030154 33.998919 33.967693
33.936487 33.905342 33.874265 33.843293 33.812432 33.781717 33.751149 33.720762
33.690555 33.660556 33.630765 33.601206 33.571875 33.542795 33.513960 33.485387
33.457070 33.429024 33.401239 33.373728 33.346479 33.319502 33.292784 33.266331
33.240129 33.214182 33.188475 33.163008 33.137766 33.112746 33.087932 33.063321
33.038893 33.014644 32.990554 32.966618 32.942815 32.919136 32.895564 32.872086
32.848685 32.825348 32.802057 32.778799 32.755556
33.133333 33.169629 33.205948 33.242312 33.278744 33.315268 33.351902 33.388673
33.425596 33.462699 33.499994 33.537509 33.575253 33.613254 33.651519 33.690073
33.728922 33.768089 33.807575 33.847405 33.887575 33.928107 33.968994 34.010257
34.051883 34.093892 34.136268 34.179026 34.222146 34.265642 34.309488 34.353696
34.398234 34.443112 34.488294 34.533785 34.579545 34.625575 34.671832 34.718312
34.764968 34.811793 34.858733 34.905780 34.952877 35.000009 35.047116 35.094181
35.141139 35.187970 35.234608 35.281026 35.327157 35.372973 35.418402 35.463415
35.507938 35.551938 35.595343 35.638118 35.680188 35.721519 35.762035 35.801702
35.840446 35.878229 35.914983 35.950669 35.985219 36.018598 36.050741 36.081612
36.111150 36.139324 36.166075 36.191374 36.215169 36.237431 36.258117 36.277200
36.294641 36.310420 36.324502 36.336872 36.347503 36.356381 36.363489 36.368816
36.372353 36.374095 36.374038 36.372182 36.368530 36.363089 36.355869 36.346879
36.336139 36.323661 36.309472 36.293590 36.276047 36.256866 36.236085 36.213731
36.189848 36.164466 36.137635 36.109387 36.079779 36.048844 36.016644 35.983213
35.948618 35.912894 35.876110 35.838303 35.799545 35.759873 35.719360 35.678042
35.635995 35.593254 35.549895 35.505950 35.461496 35.416565 35.371230 35.325522
35.279513 35.233231 35.186745 35.140082 35.093307 35.046444 34.999555 34.952659
34.905818 34.859045 34.812398 34.765888 34.719567 34.673443 34.627565 34.581935
34.536599 34.491556 34.446845 34.402463 34.358446 34.314784 34.271511 34.228614
34.186119 34.144014 34.102319 34.061019 34.020129 33.979632 33.939540 33.899831
33.860515 33.821567 33.782993 33.744768 33.706892 33.669339 33.632106 33.595166
33.558513 33.522119 33.485974 33.450050 33.414334 33.378799 33.343429 33.308196
33.273083 33.238062 33.203113 33.168211 33.133333
33.511111 33.559532 33.607984 33.656495 33.705099 33.753822 33.802698 33.851751
33.901014 33.950509 34.000271 34.050315 34.100678 34.151372 34.202431 34.253863
34.305704 34.357954 34.410649 34.463785 34.517394 34.571468 34.626037 34.681087
34.736646 34.792694 34.849255 34.906305 34.963863 35.021899 35.080430 35.139418
35.198876 35.258762 35.319082 35.379788 35.440884 35.502313 35.564075 35.626108
35.688406 35.750901 35.813583 35.876379 35.939272 36.002185 36.065096 36.127922
36.190638 36.253156 36.315445 36.377416 36.439032 36.500201 36.560883 36.620982
36.680456 36.739207 36.797190 36.854307 36.910510 36.965700 37.019830 37.072800
37.124563 37.175021 37.224126 37.271785 37.317948 37.362527 37.405474 37.446705
37.486174 37.523802 37.559548 37.593338 37.625133 37.654869 37.682510 37.707999
37.731305 37.752381 37.771199 37.787722 37.801927 37.813787 37.823285 37.830402
37.835128 37.837455 37.837378 37.834899 37.830021 37.822753 37.813105 37.801097
37.786745 37.770078 37.751118 37.729905 37.706463 37.680843 37.653075 37.623217
37.591305 37.557403 37.521552 37.483825 37.444263 37.402948 37.359923 37.315276
37.269052 37.221343 37.172197 37.121709 37.069927 37.016949 36.962824 36.907651
36.851479 36.794408 36.736485 36.677809 36.618426 36.558436 36.497879 36.436855
36.375401 36.313613 36.251525 36.189231 36.126761 36.064203 36.001583 35.938986
35.876433 35.814003 35.751713 35.689636 35.627785 35.566227 35.504970 35.444075
35.383545 35.323436 35.263744 35.204520 35.145756 35.087497 35.029730 34.972493
34.915769 34.859590 34.803937 34.748834 34.694258 34.640229 34.586720 34.533744
34.481273 34.429314 34.377837 34.326843 34.276299 34.226203 34.176519 34.127242
34.078335 34.029785 33.981558 33.933636 33.885983 33.838580 33.791390 33.744390
33.697544 33.650825 33.604201 33.557640 33.511111
33.888889 33.949457 34.010064 34.070747 34.131543 34.192494 34.253629 34.314993
34.376614 34.438534 34.500778 34.563388 34.626385 34.689811 34.753679 34.818033
34.882879 34.948261 35.014178 35.080671 35.147734 35.215405 35.283672 35.352568
35.422076 35.492226 35.562992 35.634400 35.706417 35.779065 35.852303 35.926147
36.000550 36.075523 36.151009 36.227014 36.303475 36.380391 36.457691 36.535369
36.613345 36.691607 36.770070 36.848713 36.927445 37.006241 37.085000 37.163693
37.242213 37.320525 37.398517 37.476148 37.553302 37.629933 37.705922 37.781218
37.855699 37.929311 38.001929 38.073497 38.143889 38.213047 38.280846 38.347225
38.412063 38.475297 38.536809 38.596537 38.654366 38.710237 38.764039 38.815715
38.865161 38.912324 38.957107 38.999460 39.039295 39.076567 39.111199 39.143148
39.172349 39.198767 39.222346 39.243056 39.260856 39.275722 39.287623 39.296544
39.302466 39.305383 39.305288 39.302181 39.296068 39.286958 39.274870 39.259819
39.241837 39.220946 39.197191 39.170600 39.141231 39.109117 39.074328 39.036903
38.996921 38.954430 38.909515 38.862228 38.812666 38.760884 38.706986 38.651029
38.593125 38.533334 38.471772 38.408500 38.343638 38.277249 38.209456 38.140321
38.069967 37.998456 37.925913 37.852395 37.778029 37.702868 37.627036 37.550585
37.473634 37.396230 37.318492 37.240460 37.162247 37.083889 37.005494 36.927093
36.848786 36.770600 36.692628 36.614889 36.537472 36.460388 36.383719 36.307471
36.231717 36.156458 36.081758 36.007612 35.934079 35.861145 35.788863 35.717213
35.646240 35.575921 35.506291 35.437322 35.369044 35.301424 35.234482 35.168185
35.102545 35.037524 34.973129 34.909319 34.846094 34.783412 34.721265 34.659610
34.598435 34.537693 34.477369 34.417416 34.357811 34.298509 34.239484 34.180688
34.122092 34.063652 34.005332 33.947090 33.888889
34.266667 34.339410 34.412201 34.485082 34.558103 34.631303 34.704734 34.778432
34.852448 34.926814 35.001583 35.076779 35.152456 35.228632 35.305361 35.382655
35.460564 35.539094 35.618294 35.698163 35.778746 35.860033 35.942068 36.024833
36.108366 36.192640 36.277691 36.363482 36.450044 36.537330 36.625366 36.714097
36.803541 36.893634 36.984387 37.075728 37.167662 37.260105 37.353055 37.446420
37.540192 37.634268 37.728632 37.823174 37.917870 38.012603 38.107340 38.201957
38.296414 38.390581 38.484410 38.577766 38.670595 38.762756 38.854190 38.944752
39.034378 39.122921 39.210311 39.296401 39.381119 39.464316 39.545918 39.625777
39.703819 39.779899 39.853941 39.925807 39.995420 40.062647 40.127415 40.189598
40.249125 40.305879 40.359794 40.410762 40.458722 40.503577 40.545272 40.583723
40.618881 40.650675 40.679065 40.703991 40.725422 40.743314 40.757644 40.768381
40.775513 40.779024 40.778909 40.775170 40.767811 40.756847 40.742293 40.724179
40.702529 40.677387 40.648786 40.616785 40.581425 40.542778 40.500893 40.455855
40.407720 40.356586 40.302512 40.245610 40.185944 40.123635 40.058751 39.991421
39.921718 39.849777 39.775674 39.699549 39.621478 39.541608 39.460013 39.376843
39.292172 39.206150 39.118850 39.030420 38.940932 38.850532 38.759287 38.667342
38.574757 38.481675 38.388149 38.294318 38.200229 38.106015 38.011715 37.917455
37.823270 37.729276 37.635501 37.542053 37.448953 37.356301 37.264108 37.172467
37.081382 36.990937 36.901127 36.812027 36.723626 36.635990 36.549100 36.463013
36.377704 36.293220 36.209532 36.126677 36.044619 35.963389 35.882944 35.803307
35.724432 35.646332 35.568959 35.492316 35.416354 35.341068 35.266406 35.192357
35.118866 35.045916 34.973451 34.901449 34.829853 34.758633 34.687735 34.617124
34.546745 34.476559 34.406515 34.336567 34.266667
34.644444 34.729397 34.814403 34.899519 34.984793 35.070284 35.156038 35.242114
35.328551 35.415412 35.502728 35.590564 35.678944 35.767930 35.857541 35.947838
36.038831 36.130580 36.223086 36.316405 36.410530 36.505515 36.601343 36.698062
36.795646 36.894138 36.993502 37.093777 37.194914 37.296945 37.399813 37.503543
37.608065 37.713397 37.819460 37.926262 38.033713 38.141814 38.250464 38.359655
38.469275 38.579308 38.689632 38.800221 38.910945 39.021768 39.132550 39.243249
39.353715 39.463898 39.573640 39.682884 39.791467 39.899323 40.006284 40.112277
40.217133 40.320772 40.423021 40.523797 40.622927 40.720324 40.815814 40.909311
41.000643 41.089721 41.176378 41.260525 41.342003 41.420725 41.496536 41.569354
41.639035 41.705498 41.768612 41.828302 41.884446 41.936979 41.985792 42.030825
42.071986 42.109224 42.142462 42.171656 42.196748 42.217704 42.234482 42.247059
42.255409 42.259522 42.259389 42.255010 42.246395 42.233554 42.216515 42.195300
42.169954 42.140507 42.107024 42.069545 42.028149 41.982886 41.933853 41.881107
41.824758 41.764874 41.701577 41.634940 41.565099 41.492132 41.416186 41.337345
41.255763 41.171527 41.084799 40.995669 40.904304 40.810795 40.715313 40.617947
40.518872 40.418175 40.316031 40.212524 40.107830 40.002025 39.895285 39.787681
39.679383 39.570458 39.461071 39.351280 39.241244 39.131015 39.020743 38.910472
38.800345 38.690395 38.580758 38.471459 38.362622 38.254263 38.146497 38.039332
37.932872 37.827115 37.722154 37.617981 37.514677 37.412224 37.310694 37.210062
37.110388 37.011640 36.913867 36.817030 36.721170 36.626241 36.532271 36.439212
36.347081 36.255826 36.165454 36.075909 35.987189 35.899235 35.812038 35.725535
35.639709 35.554496 35.469871 35.385769 35.302159 35.218977 35.136183 35.053714
34.971528 34.889560 34.807762 34.726075 34.644444
35.022222 35.119422 35.216685 35.314069 35.411642 35.509456 35.607581 35.706064
35.804977 35.904360 36.004285 36.104786 36.205934 36.307756 36.410320 36.513646
36.617801 36.722792 36.828688 36.935483 37.043242 37.151952 37.261670 37.372372
37.484112 37.596853 37.710643 37.825435 37.941267 38.058081 38.175909 38.294678
38.414414 38.535030 38.656544 38.778857 38.901976 39.025790 39.150297 39.275373
39.401006 39.527062 39.653516 39.780224 39.907150 40.034140 40.161149 40.288011
40.414671 40.540956 40.666801 40.792024 40.916552 41.040197 41.162878 41.284402
41.404680 41.523515 41.640815 41.756379 41.870111 41.981810 42.091376 42.198612
42.303414 42.405589 42.505035 42.601562 42.695071 42.785379 42.872390 42.955931
43.035909 43.112164 43.184608 43.253095 43.317542 43.377820 43.433853 43.485527
43.532779 43.575509 43.613665 43.647167 43.675973 43.700022 43.719283 43.733716
43.743303 43.748024 43.747872 43.742848 43.732959 43.718225 43.698665 43.674321
43.645225 43.611436 43.572999 43.529993 43.482473 43.430539 43.374253 43.313733
43.249052 43.180344 43.107690 43.031238 42.951076 42.867366 42.780202 42.689757
42.596129 42.499501 42.399975 42.297741 42.192900 42.085651 41.976095 41.864432
41.750762 41.635289 41.518110 41.399426 41.279331 41.158024 41.035595 40.912238
40.788036 40.663178 40.537739 40.411902 40.285733 40.159409 40.032983 39.906625
39.780379 39.654404 39.528735 39.403519 39.278780 39.154656 39.031160 38.908417
38.786430 38.665312 38.545058 38.425767 38.307423 38.190114 38.073816 37.958604
37.844443 37.731398 37.619427 37.508581 37.398811 37.290156 37.182563 37.076057
36.970579 36.866144 36.762689 36.660218 36.558664 36.458020 36.358216 36.259236
36.161009 36.063509 35.966663 35.870438 35.774759 35.679587 35.584848 35.490494
35.396453 35.302672 35.209081 35.115620 35.022222
35.400000 35.509491 35.619051 35.728754 35.838662 35.948853 36.059384 36.170334
36.281754 36.393725 36.506288 36.619525 36.733470 36.848204 36.963750 37.080189
37.197533 37.315860 37.435173 37.555545 37.676967 37.799508 37.923148 38.047949
38.173879 38.300993 38.429246 38.558686 38.689254 38.820991 38.953823 39.087782
39.222780 39.358840 39.495859 39.633850 39.772696 39.912398 40.052827 40.193973
40.335691 40.477959 40.620622 40.763645 40.906860 41.050220 41.193546 41.336780
41.479732 41.622333 41.764382 41.905802 42.046382 42.186037 42.324549 42.461823
42.597638 42.731892 42.864358 42.994930 43.123381 43.249598 43.373357 43.494542
43.612930 43.728407 43.840754 43.949856 44.055504 44.157584 44.255898 44.350335
44.440708 44.526914 44.608779 44.686206 44.759038 44.827187 44.890513 44.948938
45.002341 45.050655 45.093780 45.131661 45.164219 45.191411 45.213182 45.229504
45.240340 45.245679 45.245509 45.239829 45.228653 45.211994 45.189889 45.162364
45.129480 45.091277 45.047837 44.999214 44.945510 44.886792 44.823183 44.754761
44.681668 44.603991 44.521891 44.435464 44.344884 44.250257 44.151772 44.049538
43.943756 43.834542 43.722104 43.606561 43.488131 43.366930 43.243183 43.117006
42.988626 42.858157 42.725826 42.591743 42.456135 42.319104 42.180876 42.041545
41.901332 41.760323 41.618731 41.476634 41.334236 41.191606 41.048937 40.906287
40.763839 40.621640 40.479861 40.338537 40.197827 40.057753 39.918462 39.779964
39.642393 39.505747 39.370146 39.235578 39.102147 38.969832 38.838723 38.708788
38.580103 38.452627 38.326424 38.201442 38.077732 37.955235 37.833988 37.713927
37.595074 37.477361 37.360797 37.245307 37.130892 37.017473 36.905037 36.793502
36.682848 36.572990 36.463896 36.355482 36.247706 36.140486 36.033770 35.927477
35.821549 35.715906 35.610484 35.505205 35.400000
35.777778 35.899608 36.021517 36.143580 36.265882 36.388489 36.511489 36.634942
36.758939 36.883530 37.008808 37.134814 37.261639 37.389316 37.517935 37.647517
37.778150 37.909844 38.042681 38.176661 38.311862 38.448269 38.585955 38.724891
38.865144 39.006670 39.149529 39.293661 39.439118 39.585825 39.733824 39.883025
40.033458 40.185019 40.337726 40.491458 40.646223 40.801885 40.958437 41.115729
41.273741 41.432307 41.591397 41.750827 41.910555 42.070386 42.230261 42.389974
42.549455 42.708484 42.866981 43.024716 43.181596 43.337383 43.491975 43.645128
43.796730 43.946531 44.094413 44.240125 44.383540 44.524409 44.662601 44.797867
44.930077 45.058984 45.184458 45.306261 45.424264 45.538237 45.648056 45.753504
45.854460 45.950723 46.042179 46.128645 46.210015 46.286123 46.356875 46.422126
46.481794 46.535756 46.583942 46.626251 46.662631 46.693004 46.717332 46.735563
46.747673 46.753637 46.753448 46.747106 46.734619 46.716015 46.691316 46.660576
46.623833 46.581167 46.532631 46.478328 46.418325 46.352750 46.281683 46.205273
46.123613 46.036872 45.945154 45.848646 45.747461 45.641803 45.531794 45.417650
45.299500 45.177572 45.051998 44.923017 44.790761 44.655478 44.517299 44.376476
44.233139 44.087542 43.939810 43.790199 43.638827 43.485946 43.331668 43.176242
43.019770 42.862492 42.704503 42.546035 42.387169 42.228128 42.068982 41.909942
41.751066 41.592552 41.434445 41.276929 41.120036 40.963936 40.808648 40.654327
40.500978 40.348742 40.197611 40.047710 39.899019 39.751647 39.605562 39.460859
39.317496 39.175549 39.034968 38.895815 38.758028 38.621656 38.486630 38.352983
38.220639 38.089617 37.959836 37.831300 37.703925 37.577702 37.452542 37.328426
37.205261 37.083015 36.961597 36.840964 36.721022 36.601720 36.482965 36.364697
36.246825 36.129281 36.011977 35.894837 35.777778
36.155556 36.289778 36.424086 36.558571 36.693310 36.828399 36.963909 37.099938
37.236550 37.373843 37.511870 37.650733 37.790472 37.931189 38.072914 38.215744
38.359699 38.504872 38.651269 38.798979 38.947995 39.098400 39.250170 39.403384
39.558001 39.714093 39.871602 40.030591 40.190986 40.352838 40.516059 40.680687
40.846616 41.013874 41.182336 41.352018 41.522777 41.694614 41.867373 42.041038
42.215435 42.390537 42.566151 42.742235 42.918583 43.095138 43.271677 43.448130
43.624262 43.799989 43.975062 44.149384 44.322698 44.494895 44.665707 44.835017
45.002549 45.168177 45.331622 45.492748 45.651278 45.807069 45.959844 46.109457
46.255634 46.398229 46.536974 46.671724 46.802220 46.928319 47.049776 47.166451
47.278115 47.384635 47.485799 47.581483 47.671495 47.755722 47.833993 47.906209
47.972220 48.031943 48.085254 48.132083 48.172333 48.205952 48.232869 48.253049
48.266449 48.273052 48.272845 48.265827 48.252014 48.231424 48.204100 48.170078
48.129430 48.082210 48.028515 47.968416 47.902038 47.829467 47.750852 47.666292
47.575963 47.479975 47.378525 47.271735 47.159821 47.042915 46.921250 46.794964
46.664306 46.529419 46.390565 46.247889 46.101661 45.952029 45.799270 45.643529
45.485087 45.324086 45.160807 44.995388 44.828109 44.659099 44.488633 44.316834
44.143969 43.970149 43.795635 43.620526 43.445071 43.269357 43.093621 42.917936
42.742526 42.567450 42.392917 42.218971 42.045807 41.873453 41.702087 41.531724
41.362525 41.194490 41.027763 40.862331 40.698320 40.535704 40.374593 40.214946
40.056856 39.900273 39.745273 39.591792 39.439892 39.289500 39.140660 38.993293
38.847425 38.702970 38.559940 38.418244 38.277879 38.138747 38.000834 37.864038
37.728331 37.593611 37.459836 37.326903 37.194760 37.063304 36.932473 36.802164
36.672308 36.542803 36.413572 36.284518 36.155556
36.533333 36.680005 36.826774 36.973729 37.120975 37.268592 37.416688 37.565336
37.714645 37.864679 38.015548 38.167305 38.320059 38.473852 38.628791 38.784906
38.942301 39.100990 39.261074 39.422554 39.585523 39.749966 39.915971 40.083505
40.252649 40.423352 40.595686 40.769582 40.945100 41.122155 41.300794 41.480913
41.662547 41.845572 42.030011 42.215719 42.402705 42.590805 42.780013 42.970147
43.161185 43.352925 43.545330 43.738181 43.931424 44.124825 44.318312 44.511637
44.704712 44.897273 45.089221 45.280277 45.470328 45.659086 45.846425 46.032049
46.215819 46.397434 46.576748 46.753455 46.927401 47.098280 47.265934 47.430058
47.590492 47.746937 47.899231 48.047085 48.190339 48.328715 48.462058 48.590105
48.712707 48.829618 48.940700 49.045726 49.144568 49.237024 49.322978 49.402253
49.474748 49.540312 49.598860 49.650272 49.694478 49.731388 49.760952 49.783108
49.797828 49.805079 49.804854 49.797151 49.781983 49.759380 49.729373 49.692025
49.647385 49.595549 49.536582 49.470609 49.397716 49.318054 49.231725 49.138908
49.039720 48.934364 48.822971 48.705767 48.582892 48.454595 48.321024 48.182445
48.039015 47.891012 47.738599 47.582067 47.421579 47.257435 47.089798 46.918974
46.745123 46.568555 46.389422 46.208035 46.024541 45.839244 45.652284 45.463960
45.274399 45.083892 44.892554 44.700667 44.508330 44.315813 44.123202 43.930751
43.738532 43.546782 43.355557 43.165078 42.975386 42.786684 42.598995 42.412505
42.227221 42.043311 41.860767 41.679736 41.500195 41.322274 41.145936 40.971291
40.798289 40.627022 40.457426 40.289576 40.123398 39.958947 39.796141 39.635017
39.475484 39.317562 39.161154 39.006264 38.852789 38.700717 38.549939 38.400432
38.252083 38.104854 37.958631 37.813362 37.668935 37.525287 37.382304 37.239913
37.098004 36.956493 36.815274 36.674255 36.533333
36.911111 37.070295 37.229581 37.389078 37.548882 37.709105 37.869834 38.031186
38.193237 38.356105 38.519857 38.684610 38.850418 39.017399 39.185593 39.355114
39.525988 39.698327 39.872139 40.047531 40.224496 40.403133 40.583418 40.765441
40.949160 41.134656 41.321867 41.510864 41.701564 41.894028 42.088151 42.283980
42.481392 42.680418 42.880913 43.082895 43.286196 43.490819 43.696576 43.903450
44.111236 44.319899 44.529213 44.739126 44.949393 45.159945 45.370519 45.581028
45.791194 46.000913 46.209891 46.418010 46.624962 46.830615 47.034651 47.236924
47.437109 47.635048 47.830410 48.023030 48.212575 48.398871 48.581585 48.760542
48.935413 49.106018 49.272038 49.433294 49.589477 49.740412 49.885805 50.025486
50.159180 50.286725 50.407865 50.522452 50.630252 50.731131 50.824881 50.911383
50.990457 51.062001 51.125867 51.181969 51.230192 51.270472 51.302723 51.326904
51.342963 51.350878 51.350635 51.342232 51.325688 51.301025 51.268295 51.227542
51.178852 51.122290 51.057973 50.985987 50.906483 50.819563 50.725408 50.624139
50.515965 50.401022 50.279545 50.151684 50.017696 49.877744 49.732106 49.580951
49.424578 49.263162 49.097015 48.926315 48.751386 48.572408 48.389712 48.203476
48.014036 47.821566 47.626401 47.428709 47.228825 47.026905 46.823281 46.618098
46.411677 46.204153 45.995837 45.786848 45.577483 45.367848 45.158225 44.948702
44.739545 44.530825 44.322791 44.115495 43.909168 43.703845 43.499736 43.296859
43.095403 42.895370 42.696929 42.500064 42.304924 42.111476 41.919850 41.729998
41.542028 41.355879 41.171640 40.989236 40.808736 40.630055 40.453242 40.278203
40.104967 39.933432 39.763611 39.595392 39.428772 39.263635 39.099960 38.937627
38.776601 38.616759 38.458051 38.300353 38.143603 37.987676 37.832499 37.677949
37.523940 37.370353 37.217095 37.064048 36.911111
37.288889 37.460648 37.632523 37.804620 37.977059 38.149941 38.323389 38.497494
38.672381 38.848130 39.024868 39.202661 39.381638 39.561849 39.743422 39.926391
40.110881 40.296911 40.484599 40.673948 40.865069 41.057947 41.252685 41.449246
41.647727 41.848070 42.050360 42.254518 42.460615 42.668554 42.878391 43.090005
43.303439 43.518548 43.735359 43.953705 44.173596 44.394842 44.617434 44.841162
45.065996 45.291705 45.518241 45.745350 45.972966 46.200814 46.428810 46.656661
46.884262 47.111305 47.337667 47.563023 47.787236 48.009967 48.231063 48.450176
48.667139 48.881597 49.093372 49.302104 49.507607 49.709520 49.907649 50.101638
50.291289 50.476252 50.656329 50.831178 51.000605 51.164283 51.322023 51.473513
51.618573 51.756914 51.888365 52.012661 52.129646 52.239079 52.340823 52.434666
52.520487 52.598107 52.667425 52.728295 52.780637 52.824341 52.859349 52.885587
52.903020 52.911611 52.911350 52.902236 52.884282 52.857526 52.822005 52.777793
52.724949 52.663585 52.593783 52.515689 52.429406 52.335114 52.232936 52.123084
52.005698 51.881021 51.749207 51.610528 51.465151 51.313371 51.155367 50.991455
50.821823 50.646803 50.466588 50.281526 50.091812 49.897801 49.699692 49.497846
49.292455 49.083885 48.872322 48.658132 48.441491 48.222761 48.002107 47.779883
47.556243 47.331529 47.105879 46.879624 46.652885 46.425977 46.199005 45.972266
45.745846 45.520023 45.294865 45.070631 44.847368 44.625313 44.404496 44.185131
43.967230 43.750984 43.536387 43.323608 43.112621 42.903576 42.696429 42.491307
42.288151 42.087066 41.887978 41.690971 41.495958 41.303003 41.112006 40.923011
40.735909 40.550722 40.367336 40.185751 40.005848 39.827610 39.650909 39.475715
39.301895 39.129403 38.958104 38.787937 38.618768 38.450521 38.283062 38.116306
37.950119 37.784405 37.619036 37.453905 37.288889
37.666667 37.851073 38.035599 38.220374 38.405508 38.591135 38.777356 38.964308
39.152082 39.340816 39.530588 39.721537 39.913726 40.107295 40.302289 40.498846
40.696995 40.896868 41.098477 41.301947 41.507272 41.714569 41.923810 42.135103
42.348400 42.563798 42.781226 43.000768 43.222330 43.445982 43.671608 43.899260
44.128799 44.360260 44.593480 44.828476 45.065060 45.303230 45.542773 45.783668
46.025678 46.268762 46.512659 46.757307 47.002423 47.247923 47.493504 47.739063
47.984275 48.229017 48.472949 48.715927 48.957595 49.197794 49.436154 49.672500
49.906452 50.137823 50.366226 50.591462 50.813141 51.031056 51.244819 51.454217
51.658866 51.858551 52.052897 52.241690 52.424568 52.601321 52.771603 52.935212
53.091824 53.241246 53.383178 53.517442 53.643763 53.761982 53.871854 53.973236
54.065919 54.149779 54.224643 54.290410 54.346942 54.394164 54.431977 54.460329
54.479160 54.488446 54.488167 54.478323 54.458936 54.430031 54.391670 54.343906
54.286838 54.220544 54.145163 54.060797 53.967621 53.865759 53.755424 53.636758
53.510008 53.375336 53.233018 53.083233 52.926285 52.762365 52.591802 52.414799
52.231704 52.042728 51.848236 51.648443 51.443729 51.234308 51.020568 50.802723
50.581165 50.356103 50.127929 49.896844 49.663239 49.427302 49.189418 48.949762
48.708709 48.466418 48.223251 47.979352 47.735066 47.490517 47.246034 47.001722
46.757889 46.514620 46.272202 46.030697 45.790373 45.551270 45.313631 45.077478
44.843029 44.610284 44.379439 44.150475 43.923563 43.698664 43.475925 43.255292
43.036887 42.820640 42.606648 42.394827 42.185252 41.977826 41.772601 41.569467
41.368457 41.169451 40.972460 40.777356 40.584131 40.392650 40.202887 40.014701
39.828050 39.642789 39.458860 39.276117 39.094485 38.913820 38.734034 38.554983
38.376568 38.198648 38.021112 37.843825 37.666667
38.044444 38.241568 38.438825 38.636341 38.834256 39.032685 39.231775 39.431629
39.632395 39.834164 40.037086 40.241237 40.446768 40.653739 40.862297 41.072485
41.284448 41.498209 41.713907 41.931546 42.151256 42.373021 42.596963 42.823042
43.051369 43.281882 43.514677 43.749669 43.986940 44.226381 44.468056 44.711831
44.957753 45.205661 45.455584 45.707336 45.960923 46.216134 46.472956 46.731149
46.990679 47.251281 47.512899 47.775241 48.038230 48.301552 48.565106 48.828554
49.091775 49.354412 49.616321 49.877127 50.136666 50.394549 50.650594 50.904398
51.155763 51.404277 51.649731 51.891706 52.129980 52.364137 52.593945 52.818989
53.039036 53.253678 53.462679 53.665644 53.862340 54.052386 54.235557 54.411493
54.579978 54.740674 54.893382 55.037789 55.173712 55.300872 55.419104 55.528161