# vtk DataFile Version 3.0
Steady-state temperature (Jacobi)
ASCII
DATASET STRUCTURED_POINTS
DIMENSIONS 181 181 1
ORIGIN 0.0 0.0 0.0
SPACING 0.05 0.05 1.0
POINT_DATA 32761
SCALARS Temperature float 1
LOOKUP_TABLE default
32.000000 32.000000 32.000000 32.000000 32.000000 32.000000 32.000000 32.000000
32.000000 32.000000 32.000000 32.000000 32.000000 32.000000 32.000000 32.000000
32.000000 32.000000 32.000000 32.000000 32.000000 32.000000 32.000000 32.000000
32.000000 32.000000 32.000000 32.000000 32.000000 32.000000 32.000000 32.000000
32.000000 32.000000 32.000000 32.000000 32.000000 32.000000 32.000000 32.000000
32.000000 32.000000 32.000000 32.000000 32.000000 32.000000 32.000000 32.000000
32.000000 32.000000 32.000000 32.000000 32.000000 32.000000 32.000000 32.000000
32.000000 32.000000 32.000000 32.000000 32.000000 32.000000 32.000000 32.000000
32.000000 32.000000 32.000000 32.000000 32.000000 32.000000 32.000000 32.000000
32.000000 32.000000 32.000000 32.000000 32.000000 32.000000 32.000000 32.000000
32.000000 32.000000 32.000000 32.000000 32.000000 32.000000 32.000000 32.000000
32.000000 32.000000 32.000000 32.000000 32.000000 32.000000 32.000000 32.000000
32.000000 32.000000 32.000000 32.000000 32.000000 32.000000 32.000000 32.000000
32.000000 32.000000 32.000000 32.000000 32.000000 32.000000 32.000000 32.000000
32.000000 32.000000 32.000000 32.000000 32.000000 32.000000 32.000000 32.000000
32.000000 32.000000 32.000000 32.000000 32.000000 32.000000 32.000000 32.000000
32.000000 32.000000 32.000000 32.000000 32.000000 32.000000 32.000000 32.000000
32.000000 32.000000 32.000000 32.000000 32.000000 32.000000 32.000000 32.000000
32.000000 32.000000 32.000000 32.000000 32.000000 32.000000 32.000000 32.000000
32.000000 32.000000 32.000000 32.000000 32.000000 32.000000 32.000000 32.000000
32.000000 32.000000 32.000000 32.000000 32.000000 32.000000 32.000000 32.000000
32.000000 32.000000 32.000000 32.000000 32.000000 32.000000 32.000000 32.000000
32.000000 32.000000 32.000000 32.000000 32.000000
32.377778 32.375287 32.372812 32.370371 32.367978 32.365652 32.363406 32.361260
32.359223 32.357319 32.355555 32.353954 32.352521 32.351282 32.350236 32.349412
32.348807 32.348450 32.348335 32.348490 32.348908 32.349618 32.350608 32.351909
32.353505 32.355427 32.357655 32.360221 32.363103 32.366331 32.369880 32.373780
32.378001 32.382575 32.387468 32.392710 32.398265 32.404162 32.410361 32.416892
32.423711 32.430845 32.438249 32.445948 32.453895 32.462115 32.470556 32.479241
32.488119 32.497210 32.506459 32.515887 32.525438 32.535130 32.544905 32.554781
32.564699 32.574675 32.584650 32.594638 32.604581 32.614490 32.624309 32.634048
32.643651 32.653127 32.662421 32.671542 32.680436 32.689112 32.697519 32.705663
32.713497 32.721027 32.728208 32.735046 32.741501 32.747576 32.753237 32.758486
32.763294 32.767662 32.771565 32.775006 32.777964 32.780440 32.782420 32.783906
32.784887 32.785366 32.785338 32.784803 32.783765 32.782223 32.780186 32.777652
32.774636 32.771137 32.767174 32.762745 32.757876 32.752565 32.746840 32.740700
32.734179 32.727273 32.720022 32.712422 32.704515 32.696297 32.687815 32.679061
32.670087 32.660885 32.651508 32.641948 32.632258 32.622431 32.612522 32.602521
32.592485 32.582401 32.572330 32.562255 32.552238 32.542260 32.532383 32.522587
32.512932 32.503399 32.494043 32.484846 32.475862 32.467070 32.458522 32.450196
32.442143 32.434339 32.426831 32.419594 32.412675 32.406045 32.399749 32.393758
32.388112 32.382782 32.377805 32.373151 32.368854 32.364883 32.361269 32.357981
32.355046 32.352432 32.350163 32.348208 32.346587 32.345268 32.344270 32.343560
32.343153 32.343017 32.343163 32.343562 32.344220 32.345108 32.346231 32.347560
32.349095 32.350812 32.352706 32.354753 32.356948 32.359267 32.361702 32.364231
32.366844 32.369519 32.372245 32.375003 32.377778
32.755556 32.750584 32.745647 32.740773 32.736001 32.731356 32.726880 32.722592
32.718538 32.714734 32.711227 32.708027 32.705185 32.702706 32.700643 32.698993
32.697814 32.697096 32.696899 32.697206 32.698078 32.699493 32.701513 32.704109
32.707343 32.711180 32.715683 32.720808 32.726621 32.733070 32.740218 32.748010
32.756508 32.765648 32.775491 32.785968 32.797138 32.808925 32.821387 32.834441
32.848143 32.862405 32.877280 32.892673 32.908637 32.925070 32.942023 32.959389
32.977216 32.995394 33.013966 33.032819 33.051994 33.071376 33.091000 33.110750
33.130660 33.150610 33.170633 33.190609 33.210565 33.230384 33.250091 33.269570
33.288843 33.307796 33.326448 33.344692 33.362542 33.379896 33.396767 33.413057
33.428778 33.443839 33.458251 33.471928 33.484881 33.497034 33.508393 33.518894
33.528541 33.537278 33.545111 33.551993 33.557928 33.562882 33.566856 33.569827
33.571797 33.572754 33.572698 33.571629 33.569546 33.566461 33.562373 33.557305
33.551254 33.544254 33.536302 33.527443 33.517674 33.507048 33.495561 33.483279
33.470193 33.456380 33.441830 33.426627 33.410761 33.394323 33.377301 33.359792
33.341783 33.323377 33.304559 33.285437 33.265991 33.246336 33.226448 33.206445
33.186302 33.166135 33.145919 33.125772 33.105663 33.085710 33.065881 33.046293
33.026909 33.007846 32.989062 32.970671 32.952631 32.935051 32.917885 32.901239
32.885064 32.869460 32.854378 32.839911 32.826007 32.812755 32.800100 32.788125
32.776773 32.766120 32.756109 32.746809 32.738160 32.730227 32.722947 32.716378
32.710458 32.705238 32.700654 32.696751 32.693466 32.690836 32.688799 32.687385
32.686533 32.686267 32.686526 32.687327 32.688612 32.690392 32.692608 32.695267
32.698314 32.701746 32.705512 32.709605 32.713975 32.718610 32.723463 32.728516
32.733726 32.739070 32.744510 32.750017 32.755556
33.133333 33.125904 33.118522 33.111243 33.104106 33.097173 33.090478 33.084085
33.078021 33.072358 33.067112 33.062359 33.058110 33.054443 33.051360 33.048943
33.047184 33.046171 33.045884 33.046413 33.047730 33.049926 33.052965 33.056938
33.061798 33.067638 33.074401 33.082181 33.090909 33.100679 33.111413 33.123204
33.135962 33.149780 33.164559 33.180388 33.197158 33.214958 33.233668 33.253374
33.273946 33.295468 33.317802 33.341026 33.364994 33.389782 33.415236 33.441426
33.468194 33.495604 33.523491 33.551916 33.580710 33.609928 33.639397 33.669169
33.699067 33.729139 33.759207 33.789315 33.819285 33.849155 33.878751 33.908107
33.937051 33.965613 33.993627 34.021119 34.047928 34.074078 34.099417 34.123964
34.147576 34.170270 34.191916 34.212525 34.231980 34.250291 34.267352 34.283174
34.297664 34.310829 34.322594 34.332963 34.341878 34.349341 34.355311 34.359788
34.362747 34.364188 34.364104 34.362494 34.359366 34.354719 34.348579 34.340943
34.331854 34.321308 34.309365 34.296018 34.281344 34.265335 34.248082 34.229576
34.209923 34.189110 34.167257 34.144350 34.120521 34.095752 34.070186 34.043803
34.016756 33.989021 33.960759 33.931942 33.902739 33.873118 33.843251 33.813105
33.782855 33.752462 33.722103 33.691736 33.661538 33.631463 33.601687 33.572159
33.543052 33.514311 33.486107 33.458377 33.431290 33.404779 33.379005 33.353898
33.329613 33.306074 33.283429 33.261600 33.240725 33.220723 33.201723 33.183641
33.166598 33.150506 33.135475 33.121417 33.108432 33.096429 33.085499 33.075549
33.066660 33.058738 33.051854 33.045914 33.040979 33.036954 33.033891 33.031697
33.030412 33.029944 33.030324 33.031463 33.033382 33.035993 33.039309 33.043244
33.047803 33.052904 33.058541 33.064637 33.071177 33.078090 33.085353 33.092897
33.100694 33.108679 33.116817 33.125050 33.133333
33.511111 33.501254 33.491465 33.481804 33.472347 33.463145 33.454281 33.445796
33.437781 33.430265 33.423347 33.417045 33.411463 33.406607 33.402586 33.399397
33.397151 33.395831 33.395556 33.396294 33.398165 33.401128 33.405304 33.410636
33.417250 33.425074 33.434235 33.444647 33.456438 33.469507 33.483981 33.499748
33.516931 33.535405 33.555291 33.576450 33.599001 33.622792 33.647938 33.674274
33.701912 33.730674 33.760668 33.791704 33.823885 33.857011 33.891179 33.926180
33.962104 33.998734 34.036156 34.074143 34.112776 34.151824 34.191359 34.231147
34.271254 34.311444 34.351777 34.392015 34.432213 34.472135 34.511829 34.551064
34.589881 34.628056 34.665625 34.702369 34.738321 34.773273 34.807252 34.840061
34.871724 34.902058 34.931082 34.958630 34.984716 35.009191 35.032069 35.053216
35.072645 35.090243 35.106017 35.119878 35.131831 35.141808 35.149811 35.155796
35.159764 35.161691 35.161579 35.159427 35.155234 35.149023 35.140791 35.130585
35.118400 35.104304 35.088291 35.070452 35.050777 35.029379 35.006247 34.981512
34.955160 34.927342 34.898041 34.867424 34.835471 34.802366 34.768084 34.732822
34.696553 34.659484 34.621584 34.583071 34.543907 34.504319 34.464264 34.423975
34.383403 34.342784 34.302064 34.261481 34.220975 34.180782 34.140838 34.101377
34.062326 34.023918 33.986073 33.949017 33.912666 33.877239 33.842644 33.809093
33.776489 33.745034 33.714625 33.685453 33.657412 33.630681 33.605148 33.580982
33.558067 33.536558 33.516336 33.497543 33.480058 33.464009 33.449273 33.435965
33.423960 33.413359 33.404038 33.396082 33.389368 33.383968 33.379760 33.376802
33.374972 33.374318 33.374718 33.376206 33.378666 33.382118 33.386448 33.391665
33.397660 33.404430 33.411869 33.419964 33.428615 33.437798 33.447418 33.457440
33.467777 33.478384 33.489182 33.500115 33.511111
33.888889 33.876649 33.864489 33.852500 33.840751 33.829342 33.818331 33.807827
33.797873 33.788590 33.780006 33.772249 33.765333 33.759394 33.754431 33.750585
33.747841 33.746345 33.746065 33.747152 33.749560 33.753441 33.758731 33.765588
33.773930 33.783915 33.795446 33.808680 33.823503 33.840072 33.858257 33.878212
33.899789 33.923142 33.948105 33.974830 34.003132 34.033159 34.064713 34.097936
34.132612 34.168880 34.206509 34.245630 34.286001 34.327745 34.370607 34.414703
34.459767 34.505909 34.552850 34.600694 34.649155 34.698327 34.747920 34.798019
34.848330 34.898930 34.949524 35.000182 35.050607 35.100863 35.150658 35.200046
35.248742 35.296793 35.343922 35.390171 35.435273 35.479264 35.521891 35.563184
35.602906 35.641082 35.677494 35.712163 35.744890 35.775691 35.804392 35.831006
35.855381 35.877526 35.897317 35.914760 35.929757 35.942312 35.952353 35.959885
35.964863 35.967290 35.967149 35.964442 35.959183 35.951368 35.941042 35.928199
35.912913 35.895176 35.875088 35.852639 35.827958 35.801031 35.772012 35.740885
35.707827 35.672820 35.636062 35.597532 35.557448 35.515785 35.472779 35.428401
35.382902 35.336248 35.288704 35.240230 35.191101 35.141272 35.091027 35.040312
34.989418 34.938285 34.887207 34.836115 34.785306 34.734701 34.684597 34.634908
34.585925 34.537555 34.490085 34.443412 34.397815 34.353185 34.309790 34.267515
34.226616 34.186970 34.148823 34.112043 34.076863 34.043147 34.011112 33.980615
33.951859 33.924697 33.899315 33.875563 33.853609 33.833301 33.814791 33.797924
33.782834 33.769364 33.757634 33.747485 33.739019 33.732080 33.726750 33.722876
33.720524 33.719541 33.719979 33.721687 33.724702 33.728876 33.734229 33.740621
33.748056 33.756399 33.765639 33.775648 33.786402 33.797778 33.809741 33.822175
33.835031 33.848204 33.861631 33.875217 33.888889
34.266667 34.252094 34.237625 34.223348 34.209379 34.195795 34.182721 34.170218
34.158425 34.147385 34.137246 34.128038 34.119914 34.112888 34.107121 34.102608
34.099520 34.097830 34.097714 34.099129 34.102255 34.107028 34.113631 34.121981
34.132265 34.144377 34.158506 34.174526 34.192626 34.212658 34.234811 34.258916
34.285161 34.313355 34.343682 34.375934 34.410288 34.446515 34.484790 34.524864
34.566904 34.610644 34.656245 34.703422 34.752328 34.802664 34.854574 34.907743
34.962307 35.017940 35.074767 35.132450 35.191108 35.250393 35.310412 35.370814
35.431696 35.492703 35.553922 35.614997 35.676008 35.736600 35.796843 35.856389
35.915299 35.973234 36.030246 36.086009 36.140567 36.193607 36.245169 36.294957
36.343003 36.389034 36.433075 36.474876 36.514459 36.551599 36.586312 36.618402
36.647882 36.674584 36.698520 36.719553 36.737691 36.752829 36.764975 36.774057
36.780079 36.783005 36.782837 36.779574 36.773214 36.763793 36.751306 36.735823
36.717337 36.695952 36.671659 36.644594 36.614745 36.582280 36.547185 36.509656
36.469675 36.427467 36.383011 36.336556 36.288075 36.237843 36.185827 36.132322
36.077288 36.021040 35.963530 35.905087 35.845658 35.785582 35.724799 35.663656
35.602084 35.540438 35.478638 35.417042 35.355561 35.294553 35.233920 35.174015
35.114731 35.056417 34.998955 34.942685 34.887481 34.833672 34.781123 34.730150
34.680610 34.632805 34.586582 34.542229 34.499585 34.458919 34.420066 34.383277
34.348379 34.315604 34.284774 34.256102 34.229407 34.204880 34.182336 34.161948
34.143529 34.127229 34.112861 34.100555 34.090123 34.081676 34.075027 34.070265
34.067207 34.065921 34.066228 34.068176 34.071590 34.076502 34.082738 34.090313
34.099062 34.108979 34.119907 34.131824 34.144579 34.158136 34.172353 34.187177
34.202476 34.218182 34.234175 34.250373 34.266667
34.644444 34.627606 34.610881 34.594397 34.578250 34.562584 34.547478 34.533086
34.519472 34.506801 34.495117 34.484598 34.475266 34.467310 34.460731 34.455727
34.452277 34.450585 34.450611 34.452563 34.456379 34.462271 34.470153 34.480243
34.492430 34.506934 34.523620 34.542708 34.564040 34.587836 34.613911 34.642486
34.673351 34.706722 34.742368 34.780499 34.820859 34.863655 34.908608 34.955917
35.005280 35.056890 35.110424 35.166066 35.223474 35.282821 35.343749 35.406420
35.470459 35.536019 35.602711 35.670675 35.739513 35.809353 35.879788 35.950935
36.022381 36.094233 36.166074 36.238001 36.309597 36.380949 36.451645 36.521761
36.590893 36.659108 36.726014 36.791667 36.855693 36.918139 36.978649 37.037264
37.093649 37.147838 37.199524 37.248733 37.295186 37.338907 37.379645 37.417420
37.452018 37.483451 37.511542 37.536301 37.557587 37.575408 37.589662 37.600354
37.607422 37.610869 37.610673 37.606834 37.599372 37.588284 37.573631 37.555408
37.533716 37.508546 37.480039 37.448183 37.413156 37.374943 37.333759 37.289584
37.242666 37.192983 37.140814 37.086129 37.029238 36.970105 36.909065 36.846077
36.781496 36.715275 36.647789 36.578982 36.509244 36.438511 36.367184 36.295190
36.222939 36.150346 36.077828 36.005288 35.933144 35.861290 35.790139 35.719576
35.650008 35.581308 35.513876 35.447573 35.382788 35.319371 35.257698 35.197607
35.139461 35.083086 35.028827 34.976501 34.926435 34.878437 34.832811 34.789360
34.748366 34.709624 34.673394 34.639466 34.608077 34.579012 34.552483 34.528273
34.506570 34.487156 34.470195 34.455466 34.443110 34.432908 34.424977 34.419098
34.415366 34.413566 34.413769 34.415764 34.419599 34.425071 34.432204 34.440803
34.450871 34.462219 34.474832 34.488529 34.503275 34.518900 34.535350 34.552465
34.570175 34.588331 34.606846 34.625585 34.644444
35.022222 35.003188 34.984292 34.965656 34.947433 34.929727 34.912707 34.896455
34.881155 34.866870 34.853795 34.841970 34.831604 34.822713 34.815516 34.810004
34.806407 34.804690 34.805091 34.807550 34.812309 34.819284 34.828721 34.840508
34.854896 34.871744 34.891305 34.913412 34.938316 34.965822 34.996181 35.029171
35.065038 35.103532 35.144897 35.188855 35.235642 35.284955 35.337024 35.391518
35.448660 35.508093 35.570032 35.634097 35.700491 35.768813 35.839254 35.911394
35.985413 36.060874 36.137941 36.216165 36.295699 36.376079 36.457446 36.539328
36.621853 36.704545 36.787518 36.870295 36.952979 37.035094 37.116732 37.197425
37.277252 37.355758 37.433009 37.508568 37.582491 37.654359 37.724219 37.791678
37.856774 37.919139 37.978808 38.035442 38.089069 38.139386 38.186415 38.229891
38.269829 38.306006 38.338433 38.366929 38.391502 38.412013 38.428468 38.440775
38.448936 38.452904 38.452680 38.448263 38.439652 38.426894 38.409983 38.389013
38.363976 38.335011 38.302108 38.265448 38.225018 38.181043 38.133505 38.082669
38.028512 37.971336 37.911114 37.848183 37.782508 37.714458 37.643991 37.571504
37.496947 37.420741 37.342826 37.263643 37.183125 37.101726 37.019368 36.936518
36.853086 36.769548 36.685801 36.602323 36.519001 36.436311 36.354126 36.272920
36.192552 36.113488 36.035574 35.959265 35.884394 35.811402 35.740109 35.670939
35.603702 35.538800 35.476033 35.415783 35.357838 35.302557 35.249720 35.199660
35.152149 35.107496 35.065464 35.026337 34.989871 34.956323 34.925447 34.897470
34.872144 34.849669 34.829794 34.812693 34.798114 34.786204 34.776712 34.769759
34.765097 34.762818 34.762681 34.764751 34.768792 34.774845 34.782680 34.792314
34.803525 34.816307 34.830448 34.845917 34.862514 34.880188 34.898749 34.918124
34.938139 34.958701 34.979649 35.000871 35.022222
35.400000 35.378858 35.357863 35.337180 35.316936 35.297315 35.278420 35.260453
35.243493 35.227758 35.213305 35.200361 35.188960 35.179342 35.171514 35.165727
35.161960 35.160474 35.161218 35.164462 35.170126 35.178486 35.189432 35.203243
35.219779 35.239323 35.261703 35.287204 35.315621 35.347237 35.381819 35.419647
35.460455 35.504518 35.551541 35.601794 35.654948 35.711268 35.770395 35.832585
35.897451 35.965237 36.035531 36.108564 36.183899 36.261755 36.341670 36.423852
36.507818 36.593759 36.681177 36.770248 36.860457 36.951967 37.044252 37.137460
37.231056 37.325174 37.419277 37.513483 37.607257 37.700702 37.793290 37.885110
37.975644 38.064970 38.152583 38.238551 38.322390 38.404155 38.483386 38.560132
38.633960 38.704909 38.772581 38.837009 38.897830 38.955069 39.008407 39.057862
39.103159 39.144311 39.181089 39.213504 39.241374 39.264707 39.283371 39.297372
39.306629 39.311145 39.310893 39.305873 39.296110 39.281601 39.262425 39.238576
39.210184 39.177242 39.139928 39.098232 39.052384 39.002366 38.948456 38.890632
38.829215 38.764179 38.695884 38.624299 38.549820 38.472409 38.392496 38.310034
38.225483 38.138786 38.050427 37.960340 37.869028 37.776413 37.683016 37.588744
37.494129 37.399067 37.304094 37.209092 37.114599 37.020483 36.927278 36.834839
36.743692 36.653676 36.565308 36.478411 36.393488 36.310347 36.229475 36.150665
36.074383 36.000409 35.929185 35.860481 35.794713 35.731639 35.671649 35.614490
35.560524 35.509489 35.461719 35.416944 35.375467 35.337012 35.301852 35.269708
35.240820 35.214907 35.192179 35.172352 35.155606 35.141659 35.130659 35.122326
35.116778 35.113740 35.113300 35.115188 35.119463 35.125863 35.134419 35.144877
35.157241 35.171266 35.186932 35.204004 35.222437 35.242011 35.262654 35.284162
35.306439 35.329296 35.352618 35.376231 35.400000
35.777778 35.754617 35.731631 35.708972 35.686836 35.665351 35.644733 35.625086
35.606641 35.589476 35.573840 35.559784 35.547569 35.537218 35.529005 35.522923
35.519259 35.517972 35.519358 35.523347 35.530242 35.539939 35.552746 35.568526
35.587591 35.609770 35.635377 35.664206 35.696571 35.732230 35.771496 35.814093
35.860329 35.909893 35.963087 36.019567 36.079627 36.142887 36.209635 36.279458
36.352632 36.428713 36.507964 36.589913 36.674810 36.762153 36.852180 36.944363
37.038924 37.135314 37.233739 37.333631 37.435179 37.537802 37.641669 37.746192
37.851521 37.957062 38.062950 38.168588 38.274096 38.378880 38.483045 38.586007
38.687855 38.788019 38.886576 38.982975 39.077281 39.168967 39.258088 39.344145
39.427184 39.506742 39.582856 39.655100 39.723506 39.787691 39.847678 39.903135
39.954078 40.000224 40.041587 40.077936 40.109280 40.135445 40.156437 40.172138
40.182552 40.187618 40.187339 40.181712 40.170737 40.154471 40.132911 40.106173
40.074249 40.037314 39.995357 39.948607 39.897051 39.840970 39.780346 39.715513
39.646445 39.573524 39.496719 39.416455 39.332692 39.245896 39.156018 39.063558
38.968461 38.871252 38.771867 38.670856 38.568144 38.464300 38.359235 38.253534
38.147091 38.040503 37.933648 37.827125 37.720799 37.615268 37.510379 37.406724
37.304135 37.203193 37.103713 37.006262 36.910638 36.817391 36.726302 36.637900
36.551950 36.468958 36.388674 36.311575 36.237400 36.166597 36.098891 36.034701
35.973740 35.916395 35.862371 35.812021 35.765042 35.721753 35.681846 35.645606
35.612720 35.583438 35.557447 35.534960 35.515665 35.499741 35.486877 35.477218
35.470457 35.466706 35.465661 35.467405 35.471639 35.478414 35.487441 35.498738
35.512029 35.527302 35.544292 35.562959 35.583050 35.604500 35.627070 35.650669
35.675075 35.700172 35.725755 35.751685 35.777778
36.155556 36.130484 36.105595 36.081091 36.057130 36.033937 36.011644 35.990495
35.970594 35.952206 35.935401 35.920463 35.907433 35.896607 35.887994 35.881905
35.878314 35.877542 35.879532 35.884611 35.892687 35.904096 35.918706 35.936860
35.958390 35.983640 36.012403 36.045027 36.081266 36.121465 36.165339 36.213231
36.264818 36.320438 36.379727 36.443017 36.509908 36.580720 36.655017 36.733109
36.814524 36.899558 36.987706 37.079251 37.173655 37.271185 37.371274 37.474173
37.579289 37.686854 37.796255 37.907703 38.020566 38.135039 38.250476 38.367050
38.484107 38.601803 38.719478 38.837270 38.954521 39.071351 39.187109 39.301899
39.415082 39.526746 39.636271 39.743733 39.848533 39.950736 40.049774 40.145699
40.237979 40.326656 40.411240 40.491763 40.567781 40.639319 40.705982 40.767790
40.824403 40.875834 40.921801 40.962313 40.997146 41.026309 41.049638 41.067140
41.078715 41.084365 41.084057 41.077791 41.065599 41.047477 41.023523 40.993730
40.958260 40.917103 40.870484 40.818389 40.761102 40.698607 40.631245 40.558993
40.482248 40.400981 40.315637 40.226183 40.133108 40.036370 39.936500 39.833446
39.727774 39.619422 39.508986 39.396392 39.282259 39.166499 39.049751 38.931912
38.813633 38.694795 38.576057 38.457282 38.339130 38.221445 38.104886 37.989278
37.875270 37.762668 37.652107 37.543376 37.437091 37.333023 37.231766 37.133072
37.037512 36.944820 36.855538 36.769385 36.686872 36.607703 36.532355 36.460521
36.392644 36.328403 36.268205 36.211722 36.159323 36.110671 36.066098 36.025263
35.988457 35.955338 35.926159 35.900573 35.878799 35.860490 35.845826 35.834464
35.826545 35.821732 35.820131 35.821411 35.825641 35.832500 35.842022 35.853897
35.868127 35.884413 35.902724 35.922775 35.944507 35.967649 35.992112 36.017643
36.044125 36.071324 36.099098 36.127231 36.155556
36.533333 36.506459 36.479796 36.453531 36.427901 36.403063 36.379276 36.356669
36.335523 36.315933 36.298199 36.282385 36.268807 36.257496 36.248782 36.242659
36.239473 36.239179 36.242133 36.248253 36.257905 36.270966 36.287807 36.308268
36.332723 36.360969 36.393384 36.429723 36.470364 36.515019 36.564062 36.617165
36.674697 36.736287 36.802297 36.872314 36.946691 37.024974 37.107505 37.193789
37.284157 37.378074 37.475855 37.576932 37.681602 37.789262 37.900191 38.013758
38.130222 38.248924 38.370104 38.493079 38.618069 38.744374 38.872191 39.000808
39.130402 39.260253 39.390517 39.520471 39.650253 39.779145 39.907264 40.033904
40.159165 40.282356 40.403563 40.522117 40.638089 40.750842 40.860433 40.966259
41.068368 41.166199 41.259788 41.348623 41.432732 41.511654 41.585411 41.653600
41.716236 41.772977 41.823833 41.868528 41.907068 41.939242 41.965055 41.984366
41.997175 42.003412 42.003077 41.996169 41.982686 41.962700 41.936205 41.903344
41.864110 41.818713 41.767143 41.709680 41.646308 41.577371 41.502852 41.423152
41.338249 41.248603 41.154185 41.055507 40.952531 40.845818 40.735320 40.621638
40.504716 40.385191 40.262991 40.138785 40.012488 39.884790 39.755591 39.625599
39.494697 39.363602 39.232179 39.101151 38.970363 38.840535 38.711493 38.583951
38.457713 38.333480 38.211035 38.091062 37.973324 37.858483 37.746280 37.637353
37.531423 37.429097 37.330080 37.234945 37.143380 37.055923 36.972248 36.892854
36.817402 36.746353 36.679354 36.616827 36.558411 36.504486 36.454683 36.409340
36.368085 36.331213 36.298348 36.269745 36.245027 36.224409 36.207513 36.194514
36.185039 36.179223 36.176699 36.177562 36.181454 36.188432 36.198147 36.210621
36.225517 36.242821 36.262210 36.283636 36.306793 36.331599 36.357767 36.385183
36.413580 36.442815 36.472641 36.502888 36.533333
36.911111 36.882561 36.854228 36.826358 36.799137 36.772837 36.747613 36.723760
36.701402 36.680854 36.662205 36.645790 36.631662 36.620173 36.611337 36.605523
36.602705 36.603264 36.607134 36.614707 36.625873 36.641034 36.660036 36.683286
36.710588 36.742350 36.778332 36.818942 36.863895 36.913598 36.967719 37.026661
37.090045 37.158268 37.230906 37.308347 37.390121 37.476605 37.567284 37.662522
37.761762 37.865351 37.972693 38.084116 38.198987 38.317614 38.439329 38.564419
38.692186 38.822895 38.955820 39.091203 39.228295 39.367317 39.507503 39.649049
39.791177 39.934063 40.076922 40.219907 40.362235 40.504039 40.644543 40.783860
40.921229 41.056743 41.189665 41.320072 41.447254 41.571274 41.691457 41.807854
41.919832 42.027430 42.130065 42.227766 42.320004 42.406801 42.487687 42.562678
42.631368 42.693768 42.749540 42.798693 42.840959 42.876344 42.904654 42.925893
42.939944 42.946808 42.946445 42.938855 42.924075 42.902104 42.873056 42.836928
42.793911 42.743997 42.687454 42.624270 42.554785 42.478983 42.397272 42.309633
42.216535 42.117956 42.014424 41.905907 41.792991 41.675634 41.554468 41.429443
41.301232 41.169773 41.035776 40.899162 40.760671 40.620209 40.478536 40.335540
40.191998 40.047777 39.903663 39.759502 39.616081 39.473225 39.331714 39.191351
39.052907 38.916162 38.781868 38.649783 38.520638 38.394167 38.271076 38.151076
38.034843 37.922067 37.813390 37.708483 37.607949 37.511443 37.419528 37.331843
37.248909 37.170352 37.096648 37.027412 36.963077 36.903247 36.848311 36.797867
36.752256 36.711072 36.674613 36.642470 36.614894 36.591478 36.572430 36.557343
36.546383 36.539147 36.535759 36.535825 36.539425 36.546175 36.556115 36.568875
36.584454 36.602495 36.622962 36.645513 36.670076 36.696328 36.724160 36.753272
36.783523 36.814632 36.846428 36.878655 36.911111
37.288889 37.258787 37.228937 37.199557 37.170927 37.143236 37.116788 37.091737
37.068413 37.046932 37.027647 37.010636 36.996271 36.984590 36.975982 36.970445
36.968383 36.969748 36.974958 36.983922 36.997066 37.014254 37.035919 37.061876
37.092566 37.127754 37.167883 37.212669 37.262555 37.317207 37.377064 37.441743
37.511677 37.586433 37.666435 37.751201 37.841143 37.935732 38.035365 38.139467
38.248417 38.361596 38.479366 38.601062 38.727027 38.856558 38.989974 39.126537
39.266540 39.409216 39.554833 39.702595 39.852747 40.004470 40.157983 40.312453
40.468073 40.623999 40.780401 40.936433 41.092241 41.246982 41.400781 41.552807
41.703164 41.851041 41.996523 42.138826 42.278019 42.413352 42.544880 42.671894
42.794438 42.911851 43.024165 43.130778 43.231713 43.326426 43.414936 43.496767
43.571930 43.640022 43.701050 43.754687 43.800937 43.839550 43.870531 43.893710
43.909089 43.916584 43.916193 43.907917 43.891754 43.867787 43.836013 43.796599
43.749541 43.695086 43.633228 43.564293 43.488274 43.405571 43.316172 43.220552
43.118693 43.011135 42.897854 42.779453 42.655899 42.527851 42.395265 42.258850
42.118550 41.975114 41.828474 41.679414 41.527849 41.374589 41.219531 41.063508
40.906393 40.749032 40.591277 40.433979 40.276967 40.121087 39.966146 39.812982
39.661375 39.512148 39.365056 39.220901 39.079413 38.941367 38.806469 38.675463
38.548031 38.424881 38.305675 38.191080 38.080738 37.975275 37.874313 37.778435
37.687247 37.601283 37.520137 37.444298 37.373343 37.307715 37.246985 37.191543
37.140953 37.095560 37.054923 37.019335 36.988357 36.962234 36.940527 36.923434
36.910520 36.901936 36.897254 36.896581 36.899496 36.906063 36.915873 36.928946
36.944888 36.963677 36.984936 37.008603 37.034320 37.061986 37.091265 37.122019
37.153935 37.186841 37.220448 37.254551 37.288889
37.666667 37.635160 37.603909 37.573198 37.543248 37.514377 37.486767 37.460763
37.436510 37.414377 37.394471 37.377180 37.362571 37.351054 37.342648 37.337782
37.336431 37.339037 37.345528 37.356359 37.371408 37.391140 37.415383 37.444607
37.478590 37.517807 37.561981 37.611588 37.666300 37.726588 37.792072 37.863217
37.939591 38.021649 38.108906 38.201807 38.299812 38.403354 38.511842 38.625691
38.744260 38.867945 38.996059 39.128976 39.265963 39.407371 39.552428 39.701457
39.853650 40.009305 40.167581 40.328747 40.491937 40.657393 40.824226 40.992652
41.161768 41.331762 41.501724 41.671817 41.841130 42.009802 42.176931 42.342633
42.506022 42.667192 42.825283 42.980371 43.131627 43.279112 43.422039 43.560453
43.693616 43.821563 43.943611 44.059784 44.169465 44.272670 44.368849 44.458014
44.539690 44.613884 44.680201 44.738644 44.788903 44.830978 44.864646 44.889905
44.906622 44.914794 44.914376 44.905367 44.887812 44.861709 44.827192 44.784260
44.733136 44.673816 44.606611 44.531515 44.448922 44.358824 44.261693 44.157518
44.046846 43.929660 43.806578 43.677574 43.543328 43.403807 43.259747 43.111103
42.958660 42.802360 42.643029 42.480591 42.315908 42.148885 41.980408 41.810362
41.639649 41.468132 41.296723 41.125259 40.954652 40.784716 40.616355 40.449355
40.284608 40.121871 39.962018 39.804778 39.650998 39.500379 39.353738 39.210750
39.072195 38.937723 38.808073 38.682873 38.562817 38.447512 38.337605 38.232685
38.133350 38.039170 37.950694 37.867478 37.790019 37.717862 37.651451 37.590322
37.534867 37.484616 37.439908 37.400272 37.365993 37.336600 37.312327 37.292706
37.277921 37.267508 37.261603 37.259751 37.262038 37.268021 37.277740 37.290765
37.307092 37.326305 37.348357 37.372853 37.399704 37.428534 37.459214 37.491394
37.524905 37.559423 37.594745 37.630572 37.666667
38.044444 38.011673 37.979192 37.947258 37.916196 37.886223 37.857693 37.830787
37.805886 37.783126 37.762916 37.745349 37.730854 37.719480 37.711676 37.707441
37.707243 37.711033 37.719290 37.731915 37.749398 37.771588 37.798983 37.831377
37.869274 37.912412 37.961297 38.015612 38.075860 38.141668 38.213534 38.291028
38.374641 38.463884 38.559239 38.660160 38.767114 38.879499 38.997767 39.121260
39.250410 39.384509 39.523964 39.668019 39.817056 39.970271 40.128022 40.289463
40.454921 40.623513 40.795539 40.970083 41.147414 41.326590 41.507851 41.690235
41.873951 42.058028 42.242645 42.426826 42.610723 42.793364 42.974876 43.154300
43.331740 43.506257 43.677935 43.845866 44.010115 44.169814 44.325011 44.474887
44.619477 44.758019 44.890535 45.016328 45.135413 45.247163 45.351586 45.448134