# vtk DataFile Version 3.0
Steady-state temperature (Jacobi)
ASCII
DATASET STRUCTURED_POINTS
DIMENSIONS 181 181 1
ORIGIN 0.0 0.0 0.0
SPACING 0.05 0.05 1.0
POINT_DATA 32761
SCALARS Temperature float 1
LOOKUP_TABLE default
32.000000 32.000000 32.000000 32.000000 32.000000 32.000000 32.000000 32.000000
32.000000 32.000000 32.000000 32.000000 32.000000 32.000000 32.000000 32.000000
32.000000 32.000000 32.000000 32.000000 32.000000 32.000000 32.000000 32.000000
32.000000 32.000000 32.000000 32.000000 32.000000 32.000000 32.000000 32.000000
32.000000 32.000000 32.000000 32.000000 32.000000 32.000000 32.000000 32.000000
32.000000 32.000000 32.000000 32.000000 32.000000 32.000000 32.000000 32.000000
32.000000 32.000000 32.000000 32.000000 32.000000 32.000000 32.000000 32.000000
32.000000 32.000000 32.000000 32.000000 32.000000 32.000000 32.000000 32.000000
32.000000 32.000000 32.000000 32.000000 32.000000 32.000000 32.000000 32.000000
32.000000 32.000000 32.000000 32.000000 32.000000 32.000000 32.000000 32.000000
32.000000 32.000000 32.000000 32.000000 32.000000 32.000000 32.000000 32.000000
32.000000 32.000000 32.000000 32.000000 32.000000 32.000000 32.000000 32.000000
32.000000 32.000000 32.000000 32.000000 32.000000 32.000000 32.000000 32.000000
32.000000 32.000000 32.000000 32.000000 32.000000 32.000000 32.000000 32.000000
32.000000 32.000000 32.000000 32.000000 32.000000 32.000000 32.000000 32.000000
32.000000 32.000000 32.000000 32.000000 32.000000 32.000000 32.000000 32.000000
32.000000 32.000000 32.000000 32.000000 32.000000 32.000000 32.000000 32.000000
32.000000 32.000000 32.000000 32.000000 32.000000 32.000000 32.000000 32.000000
32.000000 32.000000 32.000000 32.000000 32.000000 32.000000 32.000000 32.000000
32.000000 32.000000 32.000000 32.000000 32.000000 32.000000 32.000000 32.000000
32.000000 32.000000 32.000000 32.000000 32.000000 32.000000 32.000000 32.000000
32.000000 32.000000 32.000000 32.000000 32.000000 32.000000 32.000000 32.000000
32.000000 32.000000 32.000000 32.000000 32.000000
32.377778 32.395682 32.413589 32.431501 32.449422 32.467354 32.485300 32.503263
32.521244 32.539247 32.557273 32.575325 32.593405 32.611513 32.629652 32.647824
32.666028 32.684266 32.702538 32.720845 32.739186 32.757562 32.775971 32.794412
32.812884 32.831386 32.849914 32.868466 32.887040 32.905632 32.924237 32.942853
32.961473 32.980094 32.998708 33.017311 33.035894 33.054452 33.072976 33.091460
33.109892 33.128267 33.146572 33.164799 33.182937 33.200975 33.218902 33.236706
33.254375 33.271897 33.289258 33.306445 33.323445 33.340244 33.356827 33.373181
33.389290 33.405140 33.420716 33.436003 33.450985 33.465648 33.479975 33.493954
33.507567 33.520801 33.533639 33.546069 33.558076 33.569644 33.580762 33.591415
33.601590 33.611276 33.620459 33.629129 33.637274 33.644884 33.651950 33.658462
33.664411 33.669791 33.674593 33.678812 33.682443 33.685479 33.687918 33.689756
33.690990 33.691620 33.691644 33.691062 33.689876 33.688086 33.685696 33.682709
33.679129 33.674961 33.670211 33.664884 33.658988 33.652532 33.645523 33.637971
33.629886 33.621279 33.612159 33.602540 33.592433 33.581850 33.570806 33.559312
33.547384 33.535035 33.522280 33.509134 33.495611 33.481725 33.467494 33.452932
33.438054 33.422874 33.407410 33.391675 33.375686 33.359456 33.343001 33.326334
33.309472 33.292426 33.275212 33.257841 33.240328 33.222685 33.204925 33.187058
33.169097 33.151052 33.132935 33.114754 33.096521 33.078242 33.059929 33.041587
33.023226 33.004852 32.986472 32.968092 32.949718 32.931355 32.913009 32.894682
32.876380 32.858106 32.839862 32.821651 32.803476 32.785337 32.767238 32.749178
32.731158 32.713179 32.695241 32.677342 32.659484 32.641665 32.623883 32.606138
32.588428 32.570750 32.553104 32.535486 32.517894 32.500326 32.482779 32.465251
32.447737 32.430236 32.412745 32.395260 32.377778
32.755556 32.791365 32.827181 32.863008 32.898852 32.934718 32.970613 33.006540
33.042505 33.078513 33.114568 33.150674 33.186836 33.223055 33.259337 33.295682
33.332095 33.368574 33.405123 33.441741 33.478428 33.515183 33.552007 33.588894
33.625844 33.662852 33.699915 33.737026 33.774181 33.811371 33.848591 33.885829
33.923079 33.960327 33.997566 34.034779 34.071957 34.109082 34.146142 34.183119
34.219997 34.256756 34.293379 34.329845 34.366134 34.402223 34.438091 34.473713
34.509066 34.544123 34.578860 34.613249 34.647265 34.680877 34.714060 34.746783
34.779017 34.810733 34.841901 34.872490 34.902471 34.931812 34.960484 34.988456
35.015698 35.042180 35.067874 35.092747 35.116775 35.139926 35.162175 35.183494
35.203858 35.223240 35.241619 35.258969 35.275271 35.290501 35.304642 35.317674
35.329581 35.340347 35.349959 35.358403 35.365668 35.371745 35.376626 35.380304
35.382774 35.384034 35.384082 35.382918 35.380544 35.376963 35.372179 35.366201
35.359036 35.350694 35.341187 35.330526 35.318727 35.305806 35.291779 35.276666
35.260485 35.243258 35.225007 35.205757 35.185529 35.164351 35.142248 35.119248
35.095377 35.070665 35.045139 35.018831 34.991769 34.963984 34.935505 34.906364
34.876591 34.846218 34.815272 34.783788 34.751792 34.719317 34.686391 34.653043
34.619302 34.585196 34.550752 34.515997 34.480957 34.445658 34.410122 34.374377
34.338441 34.302340 34.266092 34.229720 34.193240 34.156673 34.120034 34.083342
34.046609 34.009852 33.973083 33.936315 33.899559 33.862826 33.826124 33.789465
33.752853 33.716298 33.679803 33.643377 33.607020 33.570739 33.534534 33.498410
33.462366 33.426404 33.390523 33.354724 33.319003 33.283362 33.247796 33.212303
33.176879 33.141522 33.106226 33.070988 33.035802 33.000664 32.965569 32.930510
32.895481 32.860478 32.825493 32.790521 32.755556
33.133333 33.187053 33.240781 33.294526 33.348297 33.402101 33.455948 33.509844
33.563797 33.617815 33.671903 33.726069 33.780318 33.834656 33.889085 33.943612
33.998238 34.052967 34.107800 34.162737 34.217779 34.272924 34.328170 34.383515
34.438953 34.494481 34.550089 34.605773 34.661521 34.717326 34.773172 34.829051
34.884945 34.940841 34.996720 35.052565 35.108354 35.164070 35.219685 35.275178
35.330522 35.385692 35.440656 35.495387 35.549852 35.604020 35.657854 35.711323
35.764386 35.817009 35.869150 35.920773 35.971833 36.022292 36.072103 36.121228
36.169618 36.217232 36.264023 36.309948 36.354958 36.399010 36.442057 36.484055
36.524956 36.564719 36.603295 36.640644 36.676720 36.711483 36.744890 36.776903
36.807479 36.836585 36.864181 36.890236 36.914713 36.937584 36.958818 36.978389
36.996269 37.012436 37.026869 37.039549 37.050459 37.059585 37.066914 37.072438
37.076148 37.078040 37.078112 37.076363 37.072798 37.067419 37.060237 37.051259
37.040500 37.027972 37.013695 36.997686 36.979968 36.960564 36.939501 36.916805
36.892508 36.866640 36.839235 36.810327 36.779955 36.748154 36.714966 36.680429
36.644587 36.607481 36.569156 36.529655 36.489023 36.447305 36.404549 36.360797
36.316098 36.270497 36.224040 36.176772 36.128741 36.079988 36.030560 35.980499
35.929850 35.878652 35.826951 35.774781 35.722186 35.669201 35.615866 35.562213
35.508279 35.454095 35.399694 35.345105 35.290358 35.235479 35.180496 35.125430
35.070308 35.015147 34.959972 34.904798 34.849644 34.794524 34.739454 34.684446
34.629513 34.574662 34.519906 34.465250 34.410703 34.356267 34.301949 34.247750
34.193674 34.139720 34.085890 34.032181 33.978593 33.925122 33.871766 33.818518
33.765377 33.712334 33.659385 33.606522 33.553739 33.501027 33.448379 33.395785
33.343239 33.290729 33.238248 33.185786 33.133333
33.511111 33.582746 33.654392 33.726061 33.797764 33.869513 33.941318 34.013189
34.085137 34.157171 34.229301 34.301534 34.373879 34.446341 34.518929 34.591646
34.664498 34.737486 34.810615 34.883883 34.957294 35.030841 35.104527 35.178343
35.252288 35.326350 35.400525 35.474799 35.549163 35.623600 35.698100 35.772640
35.847205 35.921772 35.996320 36.070823 36.145256 36.219588 36.293793 36.367834
36.441681 36.515293 36.588637 36.661668 36.734350 36.806633 36.878478 36.949832
37.020651 37.090881 37.160473 37.229371 37.297525 37.364873 37.431363 37.496934
37.561530 37.625088 37.687553 37.748858 37.808948 37.867757 37.925229 37.981298
38.035907 38.088994 38.140501 38.190367 38.238537 38.284953 38.329561 38.372304
38.413134 38.451998 38.488850 38.523640 38.556327 38.586867 38.615223 38.641356
38.665234 38.686824 38.706099 38.723031 38.737601 38.749788 38.759576 38.766951
38.771906 38.774432 38.774528 38.772193 38.767431 38.760249 38.750656 38.738667
38.724298 38.707569 38.688501 38.667123 38.643462 38.617550 38.589422 38.559115
38.526669 38.492126 38.455530 38.416930 38.376373 38.333911 38.289594 38.243481
38.195623 38.146080 38.094908 38.042170 37.987920 37.932225 37.875140 37.816732
37.757057 37.696182 37.634164 37.571067 37.506949 37.441873 37.375895 37.309077
37.241472 37.173140 37.104133 37.034509 36.964314 36.893605 36.822426 36.750829
36.678855 36.606552 36.533960 36.461121 36.388070 36.314849 36.241486 36.168020
36.094476 36.020887 35.947276 35.873672 35.800093 35.726564 35.653101 35.579725
35.506447 35.433285 35.360247 35.287347 35.214590 35.141986 35.069538 34.997253
34.925130 34.853174 34.781381 34.709753 34.638286 34.566977 34.495821 34.424812
34.353944 34.283209 34.212599 34.142105 34.071717 34.001426 33.931219 33.861087
33.791016 33.720996 33.651013 33.581056 33.511111
33.888889 33.978446 34.068017 34.157618 34.247261 34.336962 34.426732 34.516588
34.606539 34.696600 34.786779 34.877091 34.967541 35.058142 35.148899 35.239820
35.330909 35.422173 35.513612 35.605230 35.697023 35.788995 35.881137 35.973448
36.065917 36.158541 36.251303 36.344196 36.437200 36.530303 36.623481 36.716717
36.809984 36.903259 36.996510 37.089711 37.182824 37.275818 37.368650 37.461286
37.553677 37.645783 37.737551 37.828937 37.919883 38.010339 38.100243 38.189543
38.278171 38.366069 38.453168 38.539406 38.624709 38.709012 38.792240 38.874324
38.955186 39.034756 39.112954 39.189709 39.264939 39.338572 39.410528 39.480735
39.549111 39.615587 39.680082 39.742528 39.802848 39.860975 39.916836 39.970367
40.021499 40.070173 40.116324 40.159898 40.200835 40.239086 40.274600 40.307332
40.337238 40.364280 40.388421 40.409630 40.427879 40.443143 40.455402 40.464641
40.470846 40.474010 40.474130 40.471205 40.465240 40.456243 40.444228 40.429210
40.411212 40.390258 40.366376 40.339598 40.309963 40.277508 40.242278 40.204319
40.163682 40.120418 40.074586 40.026242 39.975450 39.922271 39.866775 39.809024
39.749095 39.687054 39.622977 39.556936 39.489010 39.419270 39.347797 39.274664
39.199954 39.123737 39.046096 38.967103 38.886839 38.805373 38.722786 38.639145
38.554527 38.468997 38.382630 38.295488 38.207641 38.119147 38.030075 37.940476
37.850415 37.759940 37.669111 37.577972 37.486577 37.394964 37.303185 37.211272
37.119272 37.027212 36.935134 36.843061 36.751028 36.659056 36.567174 36.475398
36.383752 36.292249 36.200908 36.109737 36.018751 35.927956 35.837361 35.746968
35.656784 35.566806 35.477039 35.387476 35.298118 35.208957 35.119990 35.031208
34.942603 34.854166 34.765886 34.677752 34.589752 34.501872 34.414100 34.326420
34.238819 34.151281 34.063790 33.976332 33.888889
34.266667 34.374155 34.481661 34.589201 34.696794 34.804456 34.912204 35.020053
35.128019 35.236116 35.344359 35.452759 35.561331 35.670082 35.779025 35.888164
35.997511 36.107066 36.216836 36.326821 36.437023 36.547437 36.658063 36.768891
36.879918 36.991127 37.102512 37.214051 37.325733 37.437532 37.549431 37.661398
37.773412 37.885434 37.997437 38.109378 38.221224 38.332926 38.444445 38.555725
38.666722 38.777375 38.887634 38.997431 39.106711 39.215400 39.323438 39.430747
39.537260 39.642894 39.747579 39.851226 39.953761 40.055092 40.155141 40.253812
40.351024 40.446681 40.540698 40.632978 40.723433 40.811967 40.898492 40.982910
41.065136 41.145073 41.222637 41.297733 41.370279 41.440185 41.507372 41.571754
41.633257 41.691799 41.747313 41.799723 41.848966 41.894977 41.937697 41.977070
42.013045 42.045574 42.074615 42.100128 42.122081 42.140443 42.155190 42.166304
42.173768 42.177575 42.177718 42.174199 42.167022 42.156199 42.141744 42.123678
42.102025 42.076818 42.048087 42.015876 41.980225 41.941184 41.898804 41.853144
41.804261 41.752223 41.697092 41.638945 41.577851 41.513892 41.447141 41.377688
41.305610 41.230999 41.153938 41.074522 40.992835 40.908977 40.823032 40.735099
40.645266 40.553633 40.460284 40.365320 40.268824 40.170895 40.071614 39.971078
39.869365 39.766567 39.662761 39.558034 39.452457 39.346116 39.239075 39.131415
39.023197 38.914493 38.805361 38.695868 38.586065 38.476013 38.365758 38.255355
38.144843 38.034272 37.923675 37.813096 37.702563 37.592113 37.481769 37.371562
37.261510 37.151638 37.041959 36.932493 36.823248 36.714240 36.605470 36.496951
36.388680 36.280665 36.172899 36.065387 35.958118 35.851092 35.744298 35.637730
35.531375 35.425224 35.319262 35.213478 35.107855 35.002378 34.897030 34.791796
34.686655 34.581591 34.476584 34.371616 34.266667
34.644444 34.769875 34.895325 35.020817 35.146371 35.272006 35.397741 35.523597
35.649589 35.775738 35.902057 36.028564 36.155269 36.282190 36.409334 36.536714
36.664334 36.792205 36.920327 37.048706 37.177338 37.306227 37.435362 37.564743
37.694353 37.824188 37.954226 38.084456 38.214851 38.345395 38.476053 38.606804
38.737607 38.868434 38.999237 39.129981 39.260613 39.391090 39.521351 39.651349
39.781014 39.910291 40.039106 40.167396 40.295080 40.422090 40.548336 40.673745
40.798221 40.921686 41.044038 41.165192 41.285044 41.403502 41.520459 41.635820
41.749472 41.861319 41.971246 42.079153 42.184925 42.288460 42.389644 42.488376
42.584540 42.678038 42.768756 42.856597 42.941453 43.023228 43.101820 43.177138
43.249084 43.317574 43.382517 43.443835 43.501446 43.555279 43.605260 43.651328
43.693419 43.731480 43.765459 43.795312 43.820997 43.842482 43.859738 43.872741
43.881475 43.885928 43.886095 43.881977 43.873579 43.860913 43.843999 43.822859
43.797524 43.768026 43.734410 43.696719 43.655006 43.609326 43.559742 43.506317
43.449127 43.388242 43.323745 43.255716 43.184247 43.109421 43.031339 42.950091
42.865781 42.778506 42.688374 42.595484 42.499949 42.401870 42.301363 42.198528
42.093483 41.986328 41.877181 41.766142 41.653326 41.538831 41.422770 41.305238
41.186345 41.066182 40.944854 40.822448 40.699064 40.574783 40.449701 40.323892
40.197446 40.070431 39.942930 39.815006 39.686734 39.558170 39.429382 39.300420
39.171345 39.042199 38.913037 38.783894 38.654818 38.525837 38.396993 38.268307
38.139813 38.011529 37.883481 37.755681 37.628149 37.500891 37.373923 37.247245
37.120867 36.994785 36.869004 36.743517 36.618322 36.493409 36.368773 36.244400
36.120282 35.996400 35.872745 35.749296 35.626039 35.502953 35.380020 35.257218
35.134529 35.011928 34.889396 34.766909 34.644444
35.022222 35.165606 35.309014 35.452470 35.595997 35.739617 35.883354 36.027230
36.171265 36.315479 36.459892 36.604519 36.749381 36.894488 37.039857 37.185495
37.331416 37.477624 37.624127 37.770925 37.918022 38.065412 38.213095 38.361058
38.509296 38.657790 38.806530 38.955489 39.104651 39.253981 39.403459 39.553041
39.702699 39.852382 40.002055 40.151661 40.301154 40.450469 40.599555 40.748338
40.896759 41.044734 41.192199 41.339062 41.485249 41.630663 41.775221 41.918819
42.061368 42.202756 42.342888 42.481647 42.618931 42.754618 42.888602 43.020755
43.150968 43.279110 43.405067 43.528708 43.649917 43.768561 43.884524 43.997673
44.107893 44.215053 44.319040 44.419725 44.516999 44.610739 44.700839 44.787182
44.869668 44.948189 45.022650 45.092952 45.159009 45.220732 45.278043 45.330865
45.379130 45.422773 45.461737 45.495968 45.525422 45.550059 45.569846 45.584757
45.594772 45.599878 45.600068 45.595345 45.585713 45.571189 45.551791 45.527548
45.498493 45.464669 45.426119 45.382899 45.335065 45.282686 45.225828 45.164572
45.098995 45.029187 44.955236 44.877242 44.795300 44.709520 44.620002 44.526865
44.430215 44.330175 44.226858 44.120392 44.010892 43.898488 43.783298 43.665455
43.545075 43.422294 43.297228 43.170009 43.040752 42.909587 42.776627 42.641999
42.505810 42.368183 42.229221 42.089042 41.947742 41.805433 41.662204 41.518163
41.373390 41.227985 41.082022 40.935593 40.788764 40.641619 40.494217 40.346633
40.198918 40.051140 39.903342 39.755583 39.607898 39.460339 39.312935 39.165728
39.018739 38.872005 38.725539 38.579371 38.433508 38.287973 38.142766 37.997904
37.853384 37.709213 37.565385 37.421903 37.278754 37.135937 36.993436 36.851243
36.709340 36.567715 36.426347 36.285222 36.144315 36.003607 35.863075 35.722696
35.582445 35.442298 35.302229 35.162213 35.022222
35.400000 35.561352 35.722730 35.884163 36.045677 36.207298 36.369052 36.530964
36.693056 36.855355 37.017878 37.180649 37.343683 37.507001 37.670614 37.834540
37.998784 38.163361 38.328271 38.493524 38.659115 38.825047 38.991310 39.157902
39.324805 39.492010 39.659493 39.827238 39.995213 40.163395 40.331742 40.500226
40.668795 40.837413 41.006019 41.174569 41.342992 41.511236 41.679222 41.846888
42.014145 42.180923 42.347125 42.512670 42.677454 42.841388 43.004357 43.166266
43.326992 43.486431 43.644453 43.800947 43.955778 44.108828 44.259956 44.409039
44.555932 44.700507 44.842617 44.982131 45.118899 45.252790 45.383653 45.511356
45.635751 45.756707 45.874077 45.987736 46.097540 46.203366 46.305080 46.402563
46.495688 46.584345 46.668416 46.747798 46.822384 46.892082 46.956797 47.016446
47.070948 47.120233 47.164233 47.202890 47.236152 47.263975 47.286320 47.303159
47.314468 47.320234 47.320448 47.315112 47.304234 47.287829 47.265922 47.238542
47.205729 47.167528 47.123994 47.075183 47.021167 46.962014 46.897811 46.828637
46.754590 46.675764 46.592267 46.504202 46.411688 46.314837 46.213778 46.108629
45.999527 45.886595 45.769977 45.649802 45.526216 45.399351 45.269357 45.136367
45.000532 44.861985 44.720877 44.577339 44.431521 44.283550 44.133574 43.981714
43.828115 43.672894 43.516188 43.358109 43.198788 43.038329 42.876855 42.714464
42.551271 42.387365 42.222853 42.057814 41.892347 41.726524 41.560433 41.394136
41.227714 41.061219 40.894723 40.728270 40.561921 40.395713 40.229698 40.063905
39.898376 39.733133 39.568210 39.403621 39.239392 39.075530 38.912055 38.748967
38.586277 38.423980 38.262082 38.100571 37.939448 37.778697 37.618312 37.458274
37.298571 37.139180 36.980087 36.821265 36.662695 36.504349 36.346206 36.188235
36.030411 35.872704 35.715087 35.557528 35.400000
35.777778 35.957111 36.136476 36.315901 36.495418 36.675055 36.854842 37.034806
37.214977 37.395376 37.576032 37.756964 37.938198 38.119747 38.301635 38.483870
38.666472 38.849444 39.032800 39.216537 39.400665 39.585174 39.770066 39.955325
40.140947 40.326907 40.513194 40.699775 40.886630 41.073718 41.261011 41.448457
41.636020 41.823639 42.011268 42.198835 42.386287 42.573541 42.760532 42.947168
43.133375 43.319050 43.504109 43.688439 43.871947 44.054510 44.236025 44.416360
44.595403 44.773013 44.949070 45.123427 45.295954 45.466498 45.634924 45.801071
45.964800 46.125946 46.284365 46.439890 46.592374 46.741649 46.887568 47.029962
47.168684 47.303569 47.434472 47.561232 47.683708 47.801745 47.915207 48.023947
48.127836 48.226738 48.320533 48.409094 48.492313 48.570074 48.642282 48.708835
48.769650 48.824642 48.873739 48.916874 48.953990 48.985036 49.009971 49.028760
49.041379 49.047812 49.048050 49.042094 49.029953 49.011645 48.987197 48.956643
48.920025 48.877397 48.828816 48.774351 48.714075 48.648073 48.576432 48.499253
48.416633 48.328690 48.235532 48.137287 48.034076 47.926039 47.813303 47.696019
47.574322 47.448369 47.318302 47.184284 47.046460 46.904997 46.760043 46.611768
46.460320 46.305870 46.148563 45.988570 45.826034 45.661122 45.493975 45.324754
45.153594 44.980653 44.806057 44.629957 44.452474 44.273750 44.093896 43.913048
43.731307 43.548798 43.365615 43.181873 42.997655 42.813065 42.628179 42.443089
42.257860 42.072576 41.887291 41.702078 41.516981 41.332065 41.147363 40.962930
40.778792 40.594993 40.411550 40.228498 40.045847 39.863623 39.681829 39.500482
39.319578 39.139126 38.959118 38.779556 38.600424 38.421719 38.243419 38.065517
37.887987 37.710814 37.533971 37.357439 37.181186 37.005189 36.829417 36.653841
36.478428 36.303149 36.127969 35.952857 35.777778
36.155556 36.352887 36.550253 36.747687 36.945223 37.142894 37.340731 37.538769
37.737034 37.935558 38.134365 38.333486 38.532939 38.732751 38.932935 39.133516
39.334501 39.535909 39.737740 39.940008 40.142706 40.345843 40.549403 40.753387
40.957773 41.162552 41.367694 41.573181 41.778974 41.985047 42.191348 42.397844
42.604471 42.811187 43.017917 43.224607 43.431173 43.637548 43.843638 44.049366
44.254624 44.459326 44.663352 44.866605 45.068955 45.270292 45.470477 45.669391
45.866883 46.062824 46.257055 46.449438 46.639806 46.828013 47.013885 47.197269
47.377986 47.555878 47.730760 47.902472 48.070827 48.235661 48.396789 48.554046
48.707247 48.856229 49.000812 49.140836 49.276126 49.406527 49.531873 49.652014
49.766795 49.876076 49.979712 50.077574 50.169529 50.255463 50.335256 50.408807
50.476014 50.536790 50.591049 50.638723 50.679742 50.714054 50.741611 50.762377
50.776323 50.783432 50.783693 50.777108 50.763688 50.743451 50.716428 50.682656
50.642184 50.595068 50.541376 50.481178 50.414564 50.341619 50.262449 50.177155
50.085858 49.988674 49.885738 49.777179 49.663146 49.543775 49.419229 49.289655
49.155221 49.016084 48.872420 48.724390 48.572177 48.415944 48.255877 48.092142
47.924927 47.754396 47.580737 47.404112 47.224708 47.042682 46.858216 46.671463
46.482599 46.291771 46.099148 45.904867 45.709091 45.511948 45.313591 45.114138
44.913732 44.712482 44.510520 44.307943 44.104872 43.901395 43.697621 43.493624
43.289504 43.085326 42.881174 42.677104 42.473190 42.269477 42.066027 41.862874
41.660071 41.457643 41.255631 41.054051 40.852935 40.652290 40.452139 40.252480
40.053330 39.854678 39.656532 39.458877 39.261711 39.065015 38.868781 38.672983
38.477608 38.282626 38.088018 37.893751 37.699800 37.506131 37.312716 37.119517
36.926503 36.733635 36.540880 36.348199 36.155556
36.533333 36.748680 36.964064 37.179524 37.395097 37.610819 37.826728 38.042855
38.259239 38.475906 38.692893 38.910222 39.127926 39.346023 39.564541 39.783493
40.002902 40.222775 40.443128 40.663960 40.885283 41.107086 41.329375 41.552129
41.775345 41.998994 42.223065 42.447517 42.672330 42.897453 43.122855 43.348473
43.574265 43.800159 44.026099 44.252001 44.477800 44.703396 44.928713 45.153640
45.378088 45.601932 45.825073 46.047374 46.268721 46.488967 46.707986 46.925621
47.141733 47.356155 47.568738 47.779305 47.987698 48.193730 48.397237 48.598025
48.795922 48.990729 49.182269 49.370338 49.554758 49.735324 49.911853 50.084142
50.252011 50.415257 50.573703 50.727153 50.875432 51.018352 51.155747 51.287436
51.413263 51.533058 51.646676 51.753962 51.854783 51.948998 52.036489 52.117133
52.190827 52.257466 52.316965 52.369240 52.414221 52.451846 52.482064 52.504835
52.520127 52.527920 52.528205 52.520982 52.506262 52.484069 52.454432 52.417396
52.373011 52.321344 52.262462 52.196454 52.123405 52.043422 51.956609 51.863091
51.762988 51.656442 51.543586 51.424578 51.299565 51.168717 51.032193 50.890174
50.742828 50.590346 50.432902 50.270694 50.103902 49.932729 49.757356 49.577990
49.394812 49.208030 49.017824 48.824399 48.627932 48.428626 48.226651 48.022205
47.815452 47.606582 47.395751 47.183141 46.968899 46.753196 46.536169 46.317979
46.098751 45.878636 45.657746 45.436219 45.214157 44.991686 44.768893 44.545893
44.322762 44.099599 43.876471 43.653464 43.430632 43.208049 42.985758 42.763821
42.542270 42.321156 42.100500 41.880341 41.660693 41.441583 41.223015 41.005008
40.787557 40.570672 40.354340 40.138564 39.923324 39.708613 39.494407 39.280693
39.067441 38.854632 38.642230 38.430212 38.218541 38.007185 37.796106 37.585271
37.374636 37.164167 36.953820 36.743556 36.533333
36.911111 37.144490 37.377910 37.611414 37.845042 38.078836 38.312834 38.547076
38.781596 39.016434 39.251619 39.487189 39.723166 39.959584 40.196462 40.433826
40.671689 40.910074 41.148983 41.388434 41.628420 41.868951 42.110012 42.351604
42.593702 42.836298 43.079357 43.322859 43.566759 43.811026 44.055602 44.300447
44.545488 44.790673 45.035917 45.281155 45.526289 45.771240 46.015897 46.260168
46.503927 46.747070 46.989457 47.230971 47.471457 47.710787 47.948792 48.185331
48.420225 48.653319 48.884422 49.113371 49.339964 49.564027 49.785350 50.003751
50.219013 50.430947 50.639333 50.843974 51.044648 51.241156 51.433276 51.620807
51.803529 51.981244 52.153733 52.320805 52.482248 52.637876 52.787485 52.930899
53.067926 53.198400 53.322143 53.439003 53.548816 53.651446 53.746747 53.834598
53.914875 53.987474 54.052290 54.109241 54.158244 54.199234 54.232155 54.256962
54.273620 54.282109 54.282417 54.274545 54.258506 54.234323 54.202032 54.161678
54.113321 54.057026 53.992878 53.920962 53.841383 53.754247 53.659680 53.557805
53.448768 53.332708 53.209790 53.080168 52.944022 52.801519 52.652852 52.498200
52.337768 52.171742 52.000337 51.823746 51.642190 51.455867 51.265000 51.069789
50.870460 50.667213 50.460272 50.249834 50.036121 49.819323 49.599660 49.377315
49.152498 48.925386 48.696180 48.465048 48.232180 47.997732 47.761885 47.524782
47.286591 47.047443 46.807494 46.566861 46.325687 46.084075 45.842153 45.600013
45.357769 45.115498 44.873301 44.631242 44.389408 44.147852 43.906646 43.665830
43.425465 43.185579 42.946221 42.707407 42.469175 42.231532 41.994503 41.758086
41.522297 41.287125 41.052575 40.818630 40.585287 40.352520 40.120319 39.888653
39.657503 39.426835 39.196622 38.966827 38.737417 38.508352 38.279595 38.051101
37.822833 37.594744 37.366791 37.138928 36.911111
37.288889 37.540318 37.791793 38.043359 38.295063 38.546946 38.799056 39.051430
39.304115 39.557143 39.810559 40.064390 40.318676 40.573441 40.828718 41.084525
41.340889 41.597819 41.855338 42.113444 42.372155 42.631458 42.891360 43.151842
43.412900 43.674502 43.936634 44.199254 44.462336 44.725824 44.989682 45.253838
45.518245 45.782817 46.047493 46.312173 46.576781 46.841204 47.105351 47.369094
47.632327 47.894906 48.156713 48.417589 48.677399 48.935971 49.193157 49.448770
49.702649 49.954594 50.204431 50.451949 50.696962 50.939249 51.178615 51.414829
51.647687 51.876952 52.102415 52.323834 52.540995 52.753653 52.961593 53.164572
53.362373 53.554757 53.741511 53.922400 54.097218 54.265739 54.427763 54.583077
54.731492 54.872807 55.006847 55.133428 55.252389 55.363565 55.466812 55.561985
55.648960 55.727613 55.797841 55.859543 55.912637 55.957049 55.992719 56.019595
56.037644 56.046839 56.047171 56.038639 56.021256 55.995050 55.960057 55.916330
55.863929 55.802933 55.733424 55.655505 55.569280 55.474877 55.372419 55.262055
55.143928 55.018208 54.885056 54.744657 54.597190 54.442856 54.281845 54.114374
53.940643 53.760880 53.575294 53.384120 53.187572 52.985894 52.779301 52.568040
52.352327 52.132408 51.908499 51.680844 51.449653 51.215166 50.977586 50.737148
50.494046 50.248506 50.000712 49.750878 49.499180 49.245818 48.990955 48.734780
48.477441 48.219113 47.959930 47.700054 47.439603 47.178724 46.917521 46.656126
46.394628 46.133144 45.871749 45.610544 45.349591 45.088976 44.828747 44.568977
44.309701 44.050978 43.792830 43.535303 43.278410 43.022183 42.766623 42.511753
42.257565 42.004068 41.751247 41.499102 41.247608 40.996758 40.746521 40.496879
40.247796 39.999249 39.751195 39.503603 39.256430 39.009638 38.763180 38.517015
38.271092 38.025368 37.779792 37.534316 37.288889
37.666667 37.936165 38.205713 38.475361 38.745158 39.015154 39.285394 39.555927
39.826795 40.098044 40.369710 40.641839 40.914458 41.187610 41.461315 41.735609
42.010506 42.286034 42.562200 42.839025 43.116502 43.394647 43.673442 43.952890
44.232966 44.513661 44.794935 45.076769 45.359110 45.641927 45.925151 46.208739
46.492608 46.776699 47.060914 47.345179 47.629381 47.913432 48.197200 48.480582
48.763432 49.045629 49.327011 49.607441 49.886742 50.164762 50.441306 50.716209
50.989262 51.260284 51.529052 51.795374 52.059014 52.319768 52.577390 52.831664
53.082337 53.329185 53.571950 53.810399 54.044271 54.273332 54.497317 54.715991
54.929094 55.136390 55.337623 55.532565 55.720966 55.902604 56.077240 56.244665
56.404652 56.557004 56.701511 56.837990 56.966253 57.086132 57.197460 57.300091
57.393879 57.478700 57.554432 57.620975 57.678233 57.726129 57.764596 57.793581
57.813044 57.822959 57.823313 57.814107 57.795357 57.767089 57.729346 57.682181
57.625666 57.559878 57.484915 57.400879 57.307895 57.206087 57.095603 56.976592
56.849223 56.713664 56.570107 56.418737 56.259764 56.093387 55.919836 55.739321
55.552084 55.358348 55.158364 54.952363 54.740603 54.523320 54.300778 54.073213
53.840891 53.604047 53.362948 53.117823 52.868935 52.616509 52.360800 52.102026
51.840433 51.576228 51.309648 51.040887 50.770170 50.497678 50.223622 49.948169
49.671515 49.393813 49.115242 48.835940 48.556071 48.275755 47.995141 47.714334
47.433464 47.152622 46.871922 46.591439 46.311271 46.031477 45.752141 45.473307
45.195046 44.917386 44.640383 44.364055 44.088444 43.813554 43.539415 43.266023
42.993392 42.721510 42.450381 42.179982 41.910308 41.641328 41.373028 41.105371
40.838333 40.571872 40.305957 40.040540 39.775586 39.511043 39.246868 38.983009
38.719418 38.456040 38.192826 37.929719 37.666667
38.044444 38.332030 38.619670 38.907419 39.195331 39.483457 39.771852 40.060563
40.349642 40.639133 40.929084 41.219533 41.510524 41.802089 42.094266 42.387079
42.680561 42.974724 43.269597 43.565181 43.861494 44.158529 44.456293 44.754766
45.053947 45.353800 45.654313 45.955437 46.257147 46.559378 46.862091 47.165207
47.468672 47.772389 48.076290 48.380261 48.684218 48.988029 49.291592 49.594760
49.897414 50.199388 50.500545 50.800703 51.099708 51.397360 51.693489 51.987879
52.280343 52.570650 52.858599 53.143943 53.426467 53.705915 53.982057 54.254627
54.523385 54.788056 55.048394 55.304117 55.554974 55.800681 56.040982 56.275595
56.504264 56.726711 56.942683 57.151907 57.354139 57.549115 57.736600 57.916343
58.088123 58.251704 58.406880 58.553434 58.691179 58.819919 58.939487 59.049712