# vtk DataFile Version 3.0
Steady-state temperature (Jacobi)
ASCII
DATASET STRUCTURED_POINTS
DIMENSIONS 181 181 1
ORIGIN 0.0 0.0 0.0
SPACING 0.05 0.05 1.0
POINT_DATA 32761
SCALARS Temperature float 1
LOOKUP_TABLE default
32.000000 32.000000 32.000000 32.000000 32.000000 32.000000 32.000000 32.000000
32.000000 32.000000 32.000000 32.000000 32.000000 32.000000 32.000000 32.000000
32.000000 32.000000 32.000000 32.000000 32.000000 32.000000 32.000000 32.000000
32.000000 32.000000 32.000000 32.000000 32.000000 32.000000 32.000000 32.000000
32.000000 32.000000 32.000000 32.000000 32.000000 32.000000 32.000000 32.000000
32.000000 32.000000 32.000000 32.000000 32.000000 32.000000 32.000000 32.000000
32.000000 32.000000 32.000000 32.000000 32.000000 32.000000 32.000000 32.000000
32.000000 32.000000 32.000000 32.000000 32.000000 32.000000 32.000000 32.000000
32.000000 32.000000 32.000000 32.000000 32.000000 32.000000 32.000000 32.000000
32.000000 32.000000 32.000000 32.000000 32.000000 32.000000 32.000000 32.000000
32.000000 32.000000 32.000000 32.000000 32.000000 32.000000 32.000000 32.000000
32.000000 32.000000 32.000000 32.000000 32.000000 32.000000 32.000000 32.000000
32.000000 32.000000 32.000000 32.000000 32.000000 32.000000 32.000000 32.000000
32.000000 32.000000 32.000000 32.000000 32.000000 32.000000 32.000000 32.000000
32.000000 32.000000 32.000000 32.000000 32.000000 32.000000 32.000000 32.000000
32.000000 32.000000 32.000000 32.000000 32.000000 32.000000 32.000000 32.000000
32.000000 32.000000 32.000000 32.000000 32.000000 32.000000 32.000000 32.000000
32.000000 32.000000 32.000000 32.000000 32.000000 32.000000 32.000000 32.000000
32.000000 32.000000 32.000000 32.000000 32.000000 32.000000 32.000000 32.000000
32.000000 32.000000 32.000000 32.000000 32.000000 32.000000 32.000000 32.000000
32.000000 32.000000 32.000000 32.000000 32.000000 32.000000 32.000000 32.000000
32.000000 32.000000 32.000000 32.000000 32.000000 32.000000 32.000000 32.000000
32.000000 32.000000 32.000000 32.000000 32.000000
32.377778 32.382848 32.387932 32.393041 32.398187 32.403386 32.408646 32.413983
32.419405 32.424929 32.430561 32.436319 32.442205 32.448239 32.454422 32.460773
32.467292 32.473998 32.480887 32.487979 32.495270 32.502778 32.510496 32.518442
32.526609 32.535012 32.543642 32.552515 32.561617 32.570965 32.580543 32.590366
32.600416 32.610707 32.621219 32.631964 32.642921 32.654100 32.665476 32.677061
32.688826 32.700781 32.712896 32.725180 32.737600 32.750164 32.762837 32.775626
32.788494 32.801446 32.814444 32.827492 32.840552 32.853625 32.866671 32.879692
32.892647 32.905535 32.918317 32.930991 32.943516 32.955890 32.968073 32.980061
32.991816 33.003332 33.014574 33.025535 33.036180 33.046503 33.056470 33.066075
33.075287 33.084100 33.092484 33.100434 33.107923 33.114946 33.121480 33.127518
33.133042 33.138047 33.142516 33.146445 33.149822 33.152642 33.154898 33.156587
33.157702 33.158244 33.158210 33.157600 33.156416 33.154659 33.152336 33.149447
33.146002 33.142004 33.137467 33.132394 33.126801 33.120694 33.114092 33.107001
33.099444 33.091425 33.082973 33.074093 33.064813 33.055140 33.045106 33.034716
33.024005 33.012978 33.001670 32.990089 32.978270 32.966219 32.953974 32.941540
32.928955 32.916224 32.903385 32.890442 32.877433 32.864362 32.851266 32.838147
32.825043 32.811954 32.798917 32.785930 32.773030 32.760214 32.747516 32.734933
32.722497 32.710202 32.698080 32.686124 32.674363 32.662789 32.651428 32.640271
32.629344 32.618634 32.608165 32.597924 32.587932 32.578175 32.568671 32.559406
32.550396 32.541624 32.533105 32.524822 32.516787 32.508981 32.501414 32.494069
32.486952 32.480045 32.473352 32.466855 32.460557 32.454439 32.448501 32.442725
32.437110 32.431636 32.426301 32.421087 32.415989 32.410988 32.406078 32.401243
32.396473 32.391754 32.387074 32.382419 32.377778
32.755556 32.765706 32.775883 32.786109 32.796414 32.806817 32.817351 32.828031
32.838890 32.849943 32.861224 32.872742 32.884533 32.896604 32.908990 32.921694
32.934754 32.948166 32.961968 32.976154 32.990760 33.005777 33.021240 33.037134
33.053495 33.070302 33.087592 33.105338 33.123575 33.142271 33.161461 33.181108
33.201244 33.221828 33.242888 33.264381 33.286333 33.308693 33.331486 33.354658
33.378230 33.402143 33.426417 33.450989 33.475873 33.501005 33.526397 33.551979
33.577761 33.603671 33.629714 33.655818 33.681984 33.708136 33.734276 33.760325
33.786281 33.812066 33.837676 33.863032 33.888127 33.912883 33.937293 33.961278
33.984830 34.007874 34.030397 34.052329 34.073657 34.094312 34.114282 34.133501
34.151958 34.169592 34.186390 34.202298 34.217303 34.231356 34.244446 34.256529
34.267597 34.277612 34.286566 34.294428 34.301193 34.306838 34.311357 34.314736
34.316971 34.318055 34.317987 34.316766 34.314395 34.310880 34.306224 34.300443
34.293541 34.285542 34.276452 34.266300 34.255096 34.242875 34.229648 34.215459
34.200317 34.184273 34.167338 34.149569 34.130976 34.111622 34.091518 34.070729
34.049268 34.027205 34.004550 33.981378 33.957698 33.933587 33.909054 33.884176
33.858961 33.833489 33.807766 33.781871 33.755808 33.729657 33.703420 33.677174
33.650920 33.624734 33.598614 33.572635 33.546789 33.521151 33.495711 33.470539
33.445623 33.421029 33.396743 33.372827 33.349264 33.326112 33.303351 33.281036
33.259142 33.237721 33.216746 33.196262 33.176243 33.156728 33.137687 33.119156
33.101103 33.083559 33.066491 33.049925 33.033825 33.018213 33.003053 32.988362
32.974102 32.960287 32.946878 32.933884 32.921266 32.909028 32.897132 32.885578
32.874329 32.863379 32.852693 32.842261 32.832048 32.822042 32.812209 32.802533
32.792981 32.783536 32.774165 32.764848 32.755556
33.133333 33.148583 33.163870 33.179236 33.194714 33.210348 33.226166 33.242217
33.258524 33.275137 33.292074 33.309388 33.327090 33.345236 33.363830 33.382929
33.402533 33.422697 33.443414 33.464742 33.486666 33.509243 33.532453 33.556349
33.580906 33.606177 33.632128 33.658810 33.686182 33.714294 33.743097 33.772638
33.802861 33.833810 33.865423 33.897739 33.930689 33.964310 33.998524 34.033366
34.068750 34.104707 34.141146 34.178093 34.215451 34.253240 34.291360 34.329827
34.368534 34.407494 34.446595 34.485846 34.525133 34.564458 34.603707 34.642877
34.681851 34.720625 34.759080 34.797209 34.834892 34.872120 34.908775 34.944843
34.980211 35.014863 35.048688 35.081668 35.113698 35.144759 35.174750 35.203652
35.231371 35.257889 35.283118 35.307040 35.329575 35.350708 35.370368 35.388540
35.405163 35.420224 35.433671 35.445496 35.455656 35.464145 35.470932 35.476014
35.479371 35.481001 35.480899 35.479064 35.475502 35.470217 35.463224 35.454531
35.444166 35.432137 35.418484 35.403218 35.386390 35.368013 35.348148 35.326810
35.304069 35.279943 35.254510 35.227789 35.199866 35.170761 35.140569 35.109307
35.077078 35.043900 35.009880 34.975034 34.939474 34.903217 34.866376 34.828966
34.791104 34.752802 34.714176 34.675238 34.636104 34.596780 34.557385 34.517920
34.478502 34.439127 34.399911 34.360847 34.322044 34.283494 34.245301 34.207451
34.170047 34.133067 34.096609 34.060649 34.025278 33.990467 33.956301 33.922747
33.889884 33.857675 33.826191 33.795392 33.765344 33.736001 33.707422 33.679559
33.652463 33.626084 33.600467 33.575557 33.551393 33.527919 33.505165 33.483076
33.461674 33.440901 33.420775 33.401237 33.382297 33.363897 33.346041 33.328670
33.311782 33.295321 33.279276 33.263594 33.248259 33.233219 33.218453 33.203910
33.189564 33.175369 33.161294 33.147294 33.133333
33.511111 33.531488 33.551917 33.572445 33.593131 33.614015 33.635159 33.656597
33.678396 33.700583 33.723226 33.746346 33.770014 33.794243 33.819105 33.844605
33.870818 33.897738 33.925441 33.953914 33.983231 34.013371 34.044407 34.076309
34.109148 34.142883 34.177586 34.213205 34.249810 34.287338 34.325856 34.365293
34.405711 34.447030 34.489306 34.532450 34.576516 34.621403 34.667160 34.713679
34.761001 34.809012 34.857745 34.907079 34.957042 35.007503 35.058486 35.109854
35.161624 35.213651 35.265949 35.318369 35.370915 35.423436 35.475932 35.528248
35.580379 35.632168 35.683605 35.734533 35.784939 35.834666 35.883697 35.931877
35.979187 36.025477 36.070723 36.114781 36.157627 36.199122 36.239241 36.277853
36.314933 36.350360 36.384109 36.416069 36.446216 36.474450 36.500750 36.525028
36.547265 36.567387 36.585377 36.601175 36.614768 36.626109 36.635190 36.641979
36.646471 36.648650 36.648513 36.646062 36.641298 36.634236 36.624883 36.613268
36.599403 36.583332 36.565068 36.544673 36.522163 36.497611 36.471038 36.442530
36.412110 36.379878 36.345856 36.310158 36.272807 36.233924 36.193537 36.151775
36.108664 36.064342 36.018835 35.972287 35.924722 35.876289 35.827011 35.777041
35.726397 35.675236 35.623573 35.571564 35.519221 35.466701 35.414009 35.361302
35.308580 35.255996 35.203545 35.151377 35.099481 35.048002 34.996922 34.946381
34.896355 34.846978 34.798220 34.750206 34.702901 34.656423 34.610731 34.565933
34.521983 34.478982 34.436878 34.395762 34.355576 34.316404 34.278184 34.240989
34.204753 34.169539 34.135280 34.102028 34.069712 34.038376 34.007947 33.978460
33.949838 33.922107 33.895192 33.869109 33.843781 33.819216 33.795337 33.772144
33.749562 33.727580 33.706127 33.685185 33.664682 33.644594 33.624853 33.605427
33.586251 33.567287 33.548474 33.529767 33.511111
33.888889 33.914431 33.940035 33.965771 33.991693 34.017878 34.044371 34.071253
34.098564 34.126387 34.154752 34.183748 34.213394 34.243782 34.274922 34.306906
34.339734 34.373500 34.408194 34.443909 34.480623 34.518429 34.557295 34.597312
34.638434 34.680753 34.724209 34.768891 34.814730 34.861807 34.910043 34.959516
35.010132 35.061965 35.114910 35.169035 35.224223 35.280536 35.337845 35.396205
35.455478 35.515710 35.576753 35.638647 35.701233 35.764544 35.828411 35.892861
35.957717 36.022996 36.088517 36.154290 36.220126 36.286028 36.351804 36.417450
36.482772 36.547759 36.612214 36.676123 36.739288 36.801691 36.863136 36.923600
36.982891 37.040982 37.097689 37.152982 37.206681 37.258758 37.309041 37.357501
37.403977 37.448439 37.490742 37.530853 37.568641 37.604077 37.637043 37.667515
37.695389 37.720644 37.743195 37.763023 37.780062 37.794297 37.805681 37.814202
37.819833 37.822568 37.822398 37.819322 37.813351 37.804489 37.792765 37.778189
37.760809 37.740639 37.717747 37.692151 37.663935 37.633122 37.599814 37.564036
37.525907 37.485455 37.442813 37.398011 37.351196 37.302399 37.251780 37.199370
37.145338 37.089717 37.032684 36.974269 36.914659 36.853881 36.792127 36.729420
36.665957 36.601758 36.537020 36.471758 36.406172 36.340270 36.274250 36.208115
36.142060 36.076082 36.010370 35.944915 35.879902 35.815312 35.751325 35.687914
35.625251 35.563302 35.502229 35.441992 35.382742 35.324433 35.267206 35.211005
35.155963 35.102017 35.049288 34.997707 34.947383 34.898242 34.850380 34.803719
34.758343 34.714168 34.671267 34.629554 34.589087 34.549777 34.511673 34.474681
34.438839 34.404053 34.370347 34.337627 34.305907 34.275092 34.245185 34.216092
34.187806 34.160235 34.133361 34.107094 34.081407 34.056214 34.031479 34.007118
33.983087 33.959308 33.935728 33.912275 33.888889
34.266667 34.297419 34.328250 34.359232 34.390450 34.421967 34.453876 34.486230
34.519126 34.552608 34.586777 34.621666 34.657381 34.693941 34.731457 34.769935
34.809487 34.850107 34.891907 34.934869 34.979105 35.024582 35.071411 35.119545
35.169095 35.219997 35.272360 35.326107 35.381340 35.437969 35.496092 35.555604
35.616597 35.678950 35.742750 35.807864 35.874368 35.942116 36.011179 36.081394
36.152825 36.225296 36.298863 36.373338 36.448767 36.524951 36.601927 36.679486
36.757656 36.836219 36.915193 36.994355 37.073711 37.153033 37.232321 37.311340
37.390082 37.468311 37.546012 37.622948 37.699097 37.774223 37.848300 37.921096
37.992578 38.062521 38.130889 38.197464 38.262209 38.324914 38.385541 38.443893
38.499930 38.553471 38.604476 38.652779 38.698342 38.741015 38.780765 38.817461
38.851072 38.881486 38.908678 38.932557 38.953103 38.970247 38.983974 38.994237
39.001028 39.004323 39.004119 39.000416 38.993217 38.982545 38.968410 38.950857
38.929902 38.905614 38.878012 38.847188 38.813168 38.776063 38.735903 38.692820
38.646848 38.598137 38.546723 38.492776 38.436332 38.377575 38.316546 38.253440
38.188298 38.121328 38.052568 37.982238 37.910374 37.837201 37.762753 37.687262
37.610757 37.533472 37.455432 37.376873 37.297813 37.218488 37.138908 37.059307
36.979687 36.900280 36.821077 36.742304 36.663945 36.586218 36.509099 36.432795
36.357274 36.282734 36.209131 36.136655 36.065252 35.995099 35.926134 35.858522
35.792193 35.727296 35.663755 35.601706 35.541064 35.481952 35.424278 35.368150
35.313472 35.260336 35.208641 35.158466 35.109704 35.062421 35.016506 34.972010
34.928822 34.886977 34.846363 34.807002 34.768781 34.731710 34.695674 34.660672
34.626591 34.593416 34.561037 34.529428 34.498482 34.468162 34.438364 34.409040
34.380094 34.351467 34.323068 34.294829 34.266667
34.644444 34.680464 34.716573 34.752866 34.789422 34.826347 34.863708 34.901616
34.940127 34.979360 35.019358 35.060243 35.102045 35.144891 35.188797 35.233892
35.280178 35.327785 35.376700 35.427053 35.478815 35.532117 35.586913 35.643331
35.701310 35.760974 35.822244 35.885243 35.949873 36.016252 36.084266 36.154025
36.225399 36.298491 36.373155 36.449484 36.527316 36.606736 36.687566 36.769882
36.853489 36.938453 37.024566 37.111882 37.200180 37.289505 37.379620 37.470561
37.562080 37.654202 37.746670 37.839498 37.932420 38.025440 38.118288 38.210957
38.303172 38.394919 38.485921 38.576154 38.665344 38.753459 38.840226 38.925610
39.009343 39.091384 39.171473 39.249566 39.325414 39.398970 39.469997 39.538447
39.604100 39.666908 39.726667 39.783332 39.836716 39.886777 39.933352 39.976402
40.015784 40.051465 40.083327 40.111342 40.135417 40.155530 40.171615 40.183657
40.191615 40.195482 40.195244 40.190901 40.182468 40.169950 40.153388 40.132798
40.108247 40.079754 40.047415 40.011257 39.971397 39.927870 39.880818 39.830279
39.776418 39.719277 39.659042 39.595759 39.529633 39.460711 39.389214 39.315191
39.238880 39.160326 39.079781 38.997289 38.913110 38.827286 38.740086 38.651546
38.561940 38.471300 38.379903 38.287772 38.195186 38.102161 38.008972 37.915626
37.822398 37.729283 37.636549 37.544183 37.452443 37.361307 37.271025 37.181562
37.093156 37.005764 36.919611 36.834641 36.751068 36.668825 36.588111 36.508849
36.431224 36.355147 36.280788 36.208052 36.137089 36.067796 36.000309 35.934516
35.870535 35.808250 35.747762 35.688948 35.631892 35.576467 35.522741 35.470585
35.420048 35.371000 35.323474 35.277337 35.232609 35.189156 35.146983 35.105956
35.066066 35.027183 34.989281 34.952235 34.916006 34.880472 34.845582 34.811220
34.777323 34.743780 34.710518 34.677434 34.644444
35.022222 35.063572 35.105029 35.146687 35.188663 35.231041 35.273944 35.317445
35.361674 35.406689 35.452628 35.499534 35.547548 35.596699 35.647132 35.698859
35.752027 35.806632 35.862822 35.920573 35.980036 36.041168 36.104117 36.168822
36.235428 36.303855 36.374245 36.446498 36.520750 36.596881 36.675022 36.755034
36.837038 36.920876 37.006662 37.094218 37.183648 37.274756 37.367634 37.462070
37.558143 37.655624 37.754582 37.854769 37.956243 38.058742 38.162310 38.266672
38.371860 38.477586 38.583870 38.690414 38.797226 38.904000 39.010732 39.117110
39.223121 39.328449 39.433071 39.536669 39.639211 39.740384 39.840146 39.938190
40.034467 40.128677 40.220769 40.310450 40.397667 40.482142 40.563818 40.642434
40.717933 40.790070 40.858793 40.923876 40.985269 41.042771 41.096334 41.145782
41.191074 41.232060 41.268704 41.300885 41.328574 41.351679 41.370180 41.384013
41.393167 41.397611 41.397339 41.392352 41.382655 41.368278 41.349234 41.325584
41.297351 41.264625 41.227436 41.185906 41.140068 41.090075 41.035966 40.977920
40.915982 40.850354 40.781088 40.708409 40.632369 40.553215 40.471002 40.385994
40.298247 40.208040 40.115427 40.020702 39.923915 39.825369 39.725112 39.623455
39.520437 39.416375 39.311302 39.205536 39.099101 38.992315 38.885193 38.778049
38.670887 38.564015 38.457427 38.351423 38.245984 38.141400 38.037641 37.934985
37.833388 37.733116 37.634112 37.536627 37.440592 37.346242 37.253496 37.162572
37.073378 36.986113 36.900676 36.817246 36.735713 36.656238 36.578699 36.503240
36.429732 36.358299 36.288803 36.221351 36.155800 36.092235 36.030511 35.970693
35.912633 35.856378 35.801777 35.748859 35.697472 35.647629 35.599178 35.552115
35.506288 35.461678 35.418138 35.375630 35.334013 35.293235 35.253160 35.213721
35.174788 35.136284 35.098086 35.060103 35.022222
35.400000 35.446756 35.493626 35.540736 35.588187 35.636116 35.684609 35.733812
35.783798 35.834718 35.886629 35.939691 35.993942 36.049546 36.106525 36.165046
36.225111 36.286889 36.350364 36.415704 36.482874 36.552040 36.623146 36.696357
36.771593 36.849018 36.928530 37.010285 37.094161 37.180307 37.268580 37.359120
37.451761 37.546635 37.643553 37.742639 37.843681 37.946790 38.051737 38.158618
38.267183 38.377516 38.489350 38.602754 38.717441 38.833468 38.950533 39.068677
39.187583 39.307278 39.427434 39.548063 39.668827 39.789724 39.910408 40.030866
40.150744 40.270020 40.388336 40.505660 40.621635 40.736218 40.849057 40.960101
41.069006 41.175714 41.279890 41.381473 41.480141 41.575830 41.668234 41.757289
41.842708 41.924428 42.002183 42.075914 42.145378 42.210521 42.271129 42.327149
42.378399 42.424834 42.466299 42.502759 42.534092 42.560270 42.581206 42.596881
42.607241 42.612278 42.611973 42.606326 42.595355 42.579069 42.557522 42.530732
42.498788 42.461716 42.419638 42.372591 42.320728 42.264095 42.202874 42.137119
42.067042 41.992699 41.914334 41.832004 41.745978 41.656317 41.563310 41.467021
41.367758 41.265583 41.160822 41.053534 40.944057 40.832447 40.719053 40.603924
40.487415 40.369570 40.250746 40.130978 40.010623 39.889707 39.768586 39.647272
39.526115 39.405117 39.284621 39.164612 39.045425 38.927032 38.809754 38.693550
38.578727 38.465227 38.353344 38.243006 38.134486 38.027702 37.922907 37.820005
37.719230 37.620474 37.523950 37.429537 37.337429 37.247493 37.159902 37.074514
36.991479 36.910647 36.832146 36.755820 36.681776 36.609849 36.540127 36.472441
36.406856 36.343201 36.281521 36.221643 36.163590 36.107192 36.052452 35.999199
35.947419 35.896944 35.847741 35.799646 35.752611 35.706476 35.661176 35.616559
35.572545 35.528990 35.485799 35.442839 35.400000
35.777778 35.830018 35.882393 35.935021 35.988051 36.041587 36.095787 36.150740
36.206611 36.263475 36.321503 36.380751 36.441398 36.503479 36.567178 36.632509
36.699661 36.768625 36.839590 36.912527 36.987625 37.064831 37.144331 37.226051
37.310173 37.396597 37.485500 37.576760 37.670546 37.766712 37.865417 37.966492
38.070087 38.176006 38.284389 38.395018 38.508019 38.623149 38.740523 38.859874
38.981302 39.104520 39.229613 39.356272 39.484565 39.614167 39.745129 39.877108
40.010140 40.143865 40.278306 40.413088 40.548219 40.683314 40.818366 40.952982
41.087143 41.220451 41.352872 41.484010 41.613818 41.741904 41.868211 41.992350
42.114260 42.233561 42.350184 42.463762 42.574223 42.681218 42.784671 42.884253
42.979890 43.071274 43.158333 43.240786 43.318565 43.391417 43.459280 43.521932
43.579319 43.631252 43.677684 43.718462 43.753549 43.782829 43.806275 43.823808
43.835412 43.841047 43.840708 43.834395 43.822114 43.803903 43.779779 43.749821
43.714055 43.672598 43.625486 43.572873 43.514806 43.451474 43.382930 43.309398
43.230939 43.147808 43.060070 42.968010 42.871699 42.771445 42.667321 42.559661
42.448538 42.334304 42.217031 42.097087 41.974541 41.849775 41.722851 41.594160
41.463758 41.332041 41.199056 41.065201 40.930513 40.795388 40.659850 40.524293
40.388726 40.253536 40.118716 39.984645 39.851300 39.719046 39.587847 39.458052
39.329607 39.202844 39.077696 38.954476 38.833098 38.713857 38.596652 38.481756
38.369053 38.258794 38.150850 38.045447 37.942445 37.842046 37.744099 37.648781
37.555931 37.465702 37.377924 37.292727 37.209932 37.129646 37.051686 36.976132
36.902798 36.831741 36.762773 36.695929 36.631019 36.568055 36.506848 36.447390
36.389494 36.333131 36.278118 36.224407 36.171819 36.120289 36.069645 36.019803
35.970601 35.921938 35.873661 35.825655 35.777778
36.155556 36.213373 36.271332 36.329587 36.388263 36.447528 36.507490 36.568328
36.630133 36.693091 36.757273 36.822875 36.889947 36.958688 37.029129 37.101473
37.175725 37.252094 37.330560 37.411330 37.494362 37.579862 37.667761 37.758262
37.851270 37.946983 38.045280 38.146353 38.250052 38.356561 38.465706 38.577657
38.692215 38.809538 38.929400 39.051947 39.176925 39.304466 39.434292 39.566519
39.700843 39.837364 39.975755 40.116098 40.258046 40.401662 40.546578 40.692841
40.840063 40.988275 41.137072 41.286468 41.436046 41.585801 41.735307 41.884545
42.033080 42.180878 42.327502 42.472906 42.616651 42.758681 42.898561 43.036224
43.171246 43.303551 43.432726 43.558693 43.681052 43.799723 43.914326 44.024780
44.130731 44.232095 44.328547 44.420009 44.506183 44.586997 44.662188 44.731690
44.795275 44.852887 44.904336 44.949575 44.988454 45.020938 45.046919 45.066372
45.079233 45.085488 45.085116 45.078116 45.064512 45.044314 45.017588 44.984359
44.944733 44.898748 44.846553 44.788194 44.723862 44.653613 44.577675 44.496113
44.409192 44.316984 44.219787 44.117679 44.010988 43.899795 43.784455 43.665053
43.541967 43.415279 43.285389 43.152376 43.016656 42.878303 42.737746 42.595051
42.450654 42.304613 42.157370 42.008970 41.859855 41.710060 41.560020 41.409757
41.259700 41.109856 40.960643 40.812051 40.664487 40.517922 40.372748 40.228918
40.086807 39.946349 39.807900 39.671377 39.537112 39.405007 39.275371 39.148087
39.023441 38.901301 38.781928 38.665173 38.551273 38.440067 38.331762 38.226187
38.123523 38.023587 37.926535 37.832174 37.740633 37.651712 37.565515 37.481837
37.400753 37.322056 37.245797 37.171766 37.099988 37.030254 36.962567 36.896717
36.832684 36.770263 36.709411 36.649929 36.591752 36.534688 36.478653 36.423462
36.369013 36.315133 36.261700 36.208553 36.155556
36.533333 36.596822 36.660474 36.724434 36.788881 36.853942 36.919807 36.986587
37.054481 37.123578 37.194089 37.266080 37.339768 37.415198 37.492590 37.571965
37.653549 37.737335 37.823550 37.912162 38.003396 38.097195 38.193779 38.293064
38.395266 38.500270 38.608288 38.719175 38.833134 38.949991 39.069940 39.192776
39.318680 39.447419 39.579161 39.713644 39.851019 39.990996 40.133710 40.278844
40.426515 40.576379 40.728534 40.882612 41.038691 41.196380 41.355739 41.516353
41.678263 41.841037 42.004696 42.168790 42.333322 42.497831 42.662300 42.826259
42.989675 43.152071 43.313400 43.473181 43.631356 43.787445 43.941378 44.092684
44.241281 44.386710 44.528883 44.667355 44.802034 44.932495 45.058644 45.180080
45.296709 45.408158 45.514336 45.614902 45.709769 45.798631 45.881409 45.957835
46.027839 46.091192 46.147836 46.197585 46.240392 46.276116 46.304723 46.326119
46.340281 46.347163 46.346758 46.339065 46.324092 46.301886 46.272467 46.235931
46.192312 46.141750 46.084292 46.020126 45.949308 45.872068 45.788475 45.698799
45.603118 45.501740 45.394750 45.282491 45.165054 45.042813 44.915862 44.784603
44.649132 44.509874 44.366922 44.220722 44.071363 43.919307 43.764635 43.607820
43.448935 43.288460 43.126456 42.963406 42.799357 42.634791 42.469739 42.304678
42.139624 41.975042 41.810931 41.647744 41.485461 41.324520 41.164880 41.006961
40.850703 40.696504 40.544286 40.394424 40.246818 40.101821 39.959314 39.819623
39.682611 39.548578 39.417370 39.289256 39.164071 39.042054 38.923024 38.807192
38.694365 38.584725 38.478069 38.374548 38.273950 38.176399 38.081674 37.989873
37.900769 37.814430 37.730628 37.649404 37.570527 37.494012 37.419630 37.347369
37.277004 37.208499 37.141631 37.076342 37.012416 36.949772 36.888203 36.827606
36.767785 36.708617 36.649918 36.591547 36.533333
36.911111 36.980381 37.049819 37.119610 37.189906 37.260906 37.332740 37.405621
37.479658 37.555074 37.631955 37.710534 37.790871 37.873206 37.957574 38.044219
38.133150 38.224612 38.318587 38.415320 38.514764 38.617161 38.722435 38.830825
38.942223 39.056862 39.174602 39.295669 39.419891 39.547482 39.678241 39.812368
39.949629 40.090212 40.233850 40.380715 40.530510 40.683388 40.839021 40.997545
41.158602 41.322308 41.488276 41.656602 41.826872 41.999161 42.173031 42.348534
42.525212 42.703094 42.881703 43.061048 43.240634 43.420451 43.599991 43.779226
43.957639 44.135183 44.311338 44.486041 44.658771 44.829452 44.997569 45.163033
45.325338 45.484388 45.639690 45.791141 45.938269 46.080968 46.218788 46.351622
46.479049 46.600965 46.716979 46.826994 46.930655 47.027870 47.118325 47.201937
47.278436 47.347749 47.409650 47.464081 47.510863 47.549951 47.581216 47.604628
47.620109 47.627644 47.627205 47.618794 47.602437 47.578147 47.546004 47.506038
47.458378 47.403068 47.340287 47.270094 47.192715 47.108221 47.016885 46.918789
46.814248 46.703354 46.586461 46.463669 46.335368 46.201662 46.062975 45.919414
45.771428 45.619125 45.462981 45.303096 45.139967 44.973690 44.804774 44.633308
44.459809 44.284355 44.107470 43.929218 43.750121 43.570228 43.390059 43.209644
43.029494 42.849621 42.670524 42.492195 42.315116 42.139259 41.965087 41.792549
41.622089 41.453633 41.287600 41.123897 40.962915 40.804540 40.649136 40.496569
40.347174 40.200796 40.057743 39.917840 39.781365 39.648127 39.518370 39.391893
39.268906 39.149194 39.032937 38.919909 38.810259 38.703751 38.600504 38.500275
38.403152 38.308887 38.217540 38.128859 38.042875 37.959337 37.878246 37.799353
37.722633 37.647841 37.574925 37.503647 37.433929 37.365541 37.298384 37.232235
37.166974 37.102391 37.038344 36.974638 36.911111
37.288889 37.364047 37.439397 37.515112 37.591400 37.668416 37.746381 37.825426
37.905788 37.987573 38.071027 38.156232 38.243442 38.332711 38.424300 38.518236
38.614781 38.713933 38.815957 38.920820 39.028784 39.139785 39.254084 39.371581
39.492533 39.616807 39.744652 39.875900 40.010789 40.149119 40.291115 40.436542
40.585610 40.738050 40.894055 41.053323 41.216030 41.381837 41.550901 41.722854
41.897828 42.075423 42.255752 42.438384 42.623409 42.810367 42.999325 43.189799
43.381831 43.574915 43.769069 43.963768 44.159008 44.354247 44.549460 44.744095
44.938104 45.130928 45.322502 45.512264 45.700134 45.885550 46.068419 46.248187
46.424751 46.597568 46.766526 46.931103 47.091180 47.246258 47.396217 47.540585
47.679244 47.811753 47.938000 48.057581 48.170389 48.276062 48.374503 48.465393
48.548648 48.623998 48.691368 48.750542 48.801460 48.843956 48.877987 48.903443
48.920296 48.928492 48.928021 48.918883 48.901086 48.874688 48.839713 48.796274
48.744411 48.684293 48.615976 48.539681 48.455479 48.363641 48.264253 48.157633
48.043878 47.923352 47.796160 47.662708 47.523109 47.377804 47.226912 47.070906
46.909906 46.744414 46.574548 46.400834 46.223384 46.042741 45.859012 45.672751
45.484055 45.293485 45.101125 44.907539 44.712794 44.517453 44.321563 44.125682
43.929836 43.734570 43.539891 43.346328 43.153865 42.963012 42.773730 42.586507
42.401279 42.218510 42.038113 41.860524 41.685632 41.513845 41.345030 41.179563
41.017288 40.858552 40.703178 40.551478 40.403259 40.258797 40.117884 39.980762
39.847207 39.717427 39.591185 39.468656 39.349592 39.234133 39.122023 39.013370
38.907912 38.805722 38.706535 38.610395 38.517032 38.426460 38.338410 38.252866
38.169564 38.088457 38.009286 37.931980 37.856284 37.782101 37.709189 37.637424
37.566576 37.496499 37.426976 37.357840 37.288889
37.666667 37.747837 37.829204 37.910985 37.993356 38.076549 38.160719 38.246112
38.332858 38.421217 38.511291 38.603349 38.697466 38.793920 38.892755 38.994254
39.098431 39.205570 39.315654 39.428967 39.545457 39.665408 39.788733 39.915709
40.046215 40.180521 40.318469 40.460320 40.605878 40.755393 40.908631 41.065828
41.226713 41.391504 41.559895 41.732083 41.907727 42.087003 42.269534 42.455474
42.644411 42.836476 43.031224 43.228759 43.428608 43.630849 43.834977 44.041048
44.248530 44.457451 44.667259 44.877956 45.088969 45.300278 45.511295 45.721976
45.931722 46.140469 46.347612 46.553068 46.756232 46.957005 47.154786 47.349464
47.540446 47.727613 47.910389 48.088646 48.261831 48.429811 48.592063 48.748453
48.898488 49.042040 49.178654 49.308206 49.430283 49.544773 49.651307 49.749785
49.839889 49.921530 49.994446 50.058564 50.113675 50.159724 50.196560 50.224147
50.242393 50.251279 50.250776 50.240882 50.221628 50.193033 50.155188 50.108129
50.052008 49.986880 49.912953 49.830299 49.739183 49.639692 49.532145 49.416642
49.293552 49.162987 49.025363 48.880803 48.729761 48.572369 48.409119 48.240145
48.065973 47.886737 47.702990 47.514863 47.322931 47.127318 46.928616 46.726939
46.522891 46.316570 46.108586 45.899024 45.688491 45.477053 45.265314 45.053317
44.841656 44.630353 44.419985 44.210552 44.002611 43.796135 43.591663 43.389139
43.189076 42.991395 42.796579 42.604523 42.415679 42.229918 42.047659 41.868750
41.693575 41.521959 41.354252 41.190258 41.030289 40.874131 40.722061 40.573846
40.429727 40.289455 40.153234 40.020804 39.892333 39.767548 39.646582 39.529155
39.415364 39.304924 39.197897 39.093994 38.993246 38.895362 38.800339 38.707890
38.617980 38.530328 38.444867 38.361323 38.279602 38.199438 38.120710 38.043163
37.966652 37.890935 37.815843 37.741150 37.666667
38.044444 38.131748 38.219273 38.307222 38.395836 38.485293 38.575850 38.667660
38.760996 38.855983 38.952905 39.051858 39.153136 39.256805 39.363164 39.472247
39.584358 39.699497 39.817969 39.939739 40.065110 40.194013 40.326745 40.463199
40.603667 40.748004 40.896491 41.048944 41.205633 41.366334 41.531304 41.700277
41.873494 42.050650 42.231965 42.417096 42.606240 42.799018 42.995602 43.195574
43.399083 43.605673 43.815468 44.027978 44.243297 44.460903 44.680865 44.902630
45.126237 45.351107 45.577253 45.804073 46.031552 46.259068 46.486583 46.713460
46.939635 47.164464 47.387862 47.609179 47.828313 48.044616 48.257968 48.467730
48.673770 48.875464 49.072669 49.264781 49.451654 49.632709 49.807797 49.976372
50.138288 50.293036 50.440476 50.580140 50.711898 50.835331 50.950318 51.056493