# vtk DataFile Version 3.0
Steady-state temperature (Jacobi)
ASCII
DATASET STRUCTURED_POINTS
DIMENSIONS 181 181 1
ORIGIN 0.0 0.0 0.0
SPACING 0.05 0.05 1.0
POINT_DATA 32761
SCALARS Temperature float 1
LOOKUP_TABLE default
32.000000 32.000000 32.000000 32.000000 32.000000 32.000000 32.000000 32.000000
32.000000 32.000000 32.000000 32.000000 32.000000 32.000000 32.000000 32.000000
32.000000 32.000000 32.000000 32.000000 32.000000 32.000000 32.000000 32.000000
32.000000 32.000000 32.000000 32.000000 32.000000 32.000000 32.000000 32.000000
32.000000 32.000000 32.000000 32.000000 32.000000 32.000000 32.000000 32.000000
32.000000 32.000000 32.000000 32.000000 32.000000 32.000000 32.000000 32.000000
32.000000 32.000000 32.000000 32.000000 32.000000 32.000000 32.000000 32.000000
32.000000 32.000000 32.000000 32.000000 32.000000 32.000000 32.000000 32.000000
32.000000 32.000000 32.000000 32.000000 32.000000 32.000000 32.000000 32.000000
32.000000 32.000000 32.000000 32.000000 32.000000 32.000000 32.000000 32.000000
32.000000 32.000000 32.000000 32.000000 32.000000 32.000000 32.000000 32.000000
32.000000 32.000000 32.000000 32.000000 32.000000 32.000000 32.000000 32.000000
32.000000 32.000000 32.000000 32.000000 32.000000 32.000000 32.000000 32.000000
32.000000 32.000000 32.000000 32.000000 32.000000 32.000000 32.000000 32.000000
32.000000 32.000000 32.000000 32.000000 32.000000 32.000000 32.000000 32.000000
32.000000 32.000000 32.000000 32.000000 32.000000 32.000000 32.000000 32.000000
32.000000 32.000000 32.000000 32.000000 32.000000 32.000000 32.000000 32.000000
32.000000 32.000000 32.000000 32.000000 32.000000 32.000000 32.000000 32.000000
32.000000 32.000000 32.000000 32.000000 32.000000 32.000000 32.000000 32.000000
32.000000 32.000000 32.000000 32.000000 32.000000 32.000000 32.000000 32.000000
32.000000 32.000000 32.000000 32.000000 32.000000 32.000000 32.000000 32.000000
32.000000 32.000000 32.000000 32.000000 32.000000 32.000000 32.000000 32.000000
32.000000 32.000000 32.000000 32.000000 32.000000
32.377778 32.391661 32.405550 32.419451 32.433371 32.447315 32.461289 32.475300
32.489352 32.503451 32.517603 32.531813 32.546084 32.560424 32.574834 32.589320
32.603885 32.618534 32.633267 32.648090 32.663002 32.678008 32.693106 32.708301
32.723589 32.738974 32.754453 32.770027 32.785691 32.801447 32.817288 32.833216
32.849221 32.865305 32.881456 32.897675 32.913950 32.930280 32.946651 32.963061
32.979496 32.995951 33.012412 33.028873 33.045317 33.061739 33.078121 33.094454
33.110722 33.126914 33.143012 33.159006 33.174875 33.190610 33.206189 33.221600
33.236824 33.251846 33.266647 33.281213 33.295523 33.309563 33.323313 33.336759
33.349879 33.362661 33.375083 33.387134 33.398792 33.410045 33.420874 33.431267
33.441205 33.450678 33.459668 33.468165 33.476154 33.483625 33.490564 33.496964
33.502812 33.508101 33.512822 33.516968 33.520532 33.523509 33.525894 33.527684
33.528875 33.529466 33.529456 33.528845 33.527634 33.525825 33.523420 33.520424
33.516842 33.512679 33.507942 33.502637 33.496774 33.490361 33.483409 33.475927
33.467929 33.459424 33.450428 33.440951 33.431011 33.420618 33.409791 33.398543
33.386892 33.374851 33.362441 33.349675 33.336573 33.323149 33.309424 33.295413
33.281135 33.266605 33.251845 33.236866 33.221691 33.206333 33.190812 33.175139
33.159337 33.143416 33.127396 33.111287 33.095108 33.078869 33.062587 33.046272
33.029940 33.013598 32.997263 32.980940 32.964645 32.948381 32.932163 32.915995
32.899888 32.883845 32.867877 32.851985 32.836179 32.820459 32.804834 32.789301
32.773870 32.758537 32.743309 32.728182 32.713161 32.698242 32.683428 32.668716
32.654107 32.639596 32.625184 32.610865 32.596639 32.582500 32.568446 32.554472
32.540575 32.526747 32.512987 32.499287 32.485643 32.472049 32.458499 32.444986
32.431506 32.418052 32.404616 32.391194 32.377778
32.755556 32.783326 32.811109 32.838916 32.866760 32.894653 32.922607 32.950632
32.978741 33.006944 33.035254 33.063677 33.092228 33.120911 33.149739 33.178716
33.207854 33.237155 33.266631 33.296281 33.326115 33.356131 33.386339 33.416733
33.447322 33.478098 33.509068 33.540221 33.571564 33.603082 33.634780 33.666641
33.698668 33.730842 33.763162 33.795608 33.828176 33.860844 33.893605 33.926434
33.959324 33.992244 34.025186 34.058119 34.091029 34.123885 34.156670 34.189350
34.221907 34.254305 34.286524 34.318525 34.350287 34.381770 34.412951 34.443789
34.474259 34.504319 34.533945 34.563091 34.591734 34.619830 34.647353 34.674258
34.700522 34.726100 34.750967 34.775081 34.798418 34.820937 34.842615 34.863413
34.883308 34.902264 34.920261 34.937266 34.953259 34.968210 34.982102 34.994909
35.006617 35.017202 35.026652 35.034949 35.042084 35.048042 35.052817 35.056399
35.058783 35.059966 35.059946 35.058723 35.056299 35.052678 35.047865 35.041870
35.034699 35.026366 35.016883 35.006267 34.994530 34.981696 34.967779 34.952806
34.936795 34.919774 34.901766 34.882800 34.862901 34.842103 34.820430 34.797920
34.774597 34.750502 34.725660 34.700113 34.673887 34.647025 34.619553 34.591514
34.562936 34.533861 34.504316 34.474345 34.443972 34.413240 34.382174 34.350816
34.319188 34.287332 34.255268 34.223037 34.190657 34.158166 34.125581 34.092939
34.060254 34.027560 33.994869 33.962213 33.929603 33.897066 33.864612 33.832266
33.800034 33.767940 33.735987 33.704196 33.672568 33.641122 33.609856 33.578786
33.547909 33.517238 33.486767 33.456509 33.426454 33.396612 33.366974 33.337546
33.308317 33.279291 33.250457 33.221815 33.193354 33.165073 33.136958 33.109006
33.081203 33.053546 33.026019 32.998615 32.971322 32.944129 32.917024 32.889995
32.863030 32.836116 32.809241 32.782392 32.755556
33.133333 33.175000 33.216686 33.258409 33.300186 33.342037 33.383979 33.426030
33.468205 33.510524 33.552999 33.595650 33.638487 33.681528 33.724782 33.768266
33.811985 33.855958 33.900184 33.944680 33.989445 34.034494 34.079820 34.125437
34.171336 34.217528 34.264000 34.310760 34.357792 34.405101 34.452668 34.500494
34.548556 34.596854 34.645358 34.694065 34.742943 34.791986 34.841155 34.890442
34.939805 34.989231 35.038675 35.088121 35.137520 35.186852 35.236065 35.285136
35.334008 35.382657 35.431023 35.479078 35.526761 35.574040 35.620852 35.667163
35.712910 35.758055 35.802534 35.846309 35.889315 35.931512 35.972837 36.013249
36.052684 36.091102 36.128441 36.164663 36.199705 36.233531 36.266083 36.297324
36.327199 36.355675 36.382701 36.408245 36.432261 36.454720 36.475583 36.494822
36.512403 36.528304 36.542496 36.554961 36.565676 36.574626 36.581797 36.587178
36.590759 36.592536 36.592506 36.590669 36.587028 36.581589 36.574361 36.565354
36.554586 36.542069 36.527827 36.511879 36.494254 36.474974 36.454075 36.431583
36.407538 36.381971 36.354927 36.326439 36.296557 36.265316 36.232771 36.198959
36.163938 36.127746 36.090444 36.052072 36.012693 35.972346 35.931097 35.888986
35.846077 35.802410 35.758051 35.713039 35.667438 35.621286 35.574647 35.527555
35.480074 35.432237 35.384103 35.335704 35.287098 35.238311 35.189399 35.140386
35.091326 35.042237 34.993170 34.944141 34.895195 34.846347 34.797639 34.749079
34.700706 34.652526 34.604573 34.556850 34.509386 34.462182 34.415264 34.368627
34.322293 34.276256 34.230534 34.185118 34.140021 34.095232 34.050761 34.006594
33.962738 33.919177 33.875914 33.832931 33.790228 33.747787 33.705604 33.663658
33.621945 33.580442 33.539142 33.498022 33.457072 33.416270 33.375601 33.335046
33.294588 33.254206 33.213883 33.173598 33.133333
33.511111 33.566688 33.622290 33.677941 33.733667 33.789489 33.845435 33.901524
33.957783 34.014229 34.070890 34.127779 34.184924 34.242335 34.300038 34.358041
34.416368 34.475022 34.534027 34.593383 34.653110 34.713203 34.773682 34.834535
34.895781 34.957404 35.019416 35.081800 35.144563 35.207682 35.271162 35.334974
35.399119 35.463561 35.528300 35.593293 35.658534 35.723977 35.789611 35.855384
35.921280 35.987242 36.053250 36.119242 36.185193 36.251037 36.316743 36.382241
36.447497 36.512435 36.577019 36.641168 36.704842 36.767958 36.830473 36.892301
36.953395 37.013669 37.073073 37.131521 37.188960 37.245304 37.300500 37.354462
37.407136 37.458438 37.508314 37.556684 37.603495 37.648667 37.692151 37.733872
37.773783 37.811813 37.847917 37.882032 37.914116 37.944113 37.971984 37.997680
38.021169 38.042406 38.061367 38.078015 38.092330 38.104285 38.113865 38.121052
38.125837 38.128211 38.128171 38.125717 38.120853 38.113588 38.103932 38.091902
38.077515 38.060797 38.041770 38.020470 37.996923 37.971173 37.943253 37.913213
37.881091 37.846946 37.810817 37.772771 37.732852 37.691131 37.647655 37.602501
37.555719 37.507389 37.457562 37.406322 37.353722 37.299848 37.244752 37.188523
37.131213 37.072910 37.013666 36.953569 36.892669 36.831054 36.768770 36.705903
36.642498 36.578639 36.514366 36.449760 36.384859 36.319739 36.254434 36.189017
36.123516 36.058001 35.992495 35.927063 35.861724 35.796537 35.731517 35.666718
35.602149 35.537860 35.473856 35.410180 35.346833 35.283852 35.221235 35.159014
35.097181 35.035763 34.974749 34.914161 34.853985 34.794236 34.734898 34.675981
34.617466 34.559358 34.501637 34.444302 34.387331 34.330720 34.274444 34.218496
34.162848 34.107492 34.052397 33.997551 33.942926 33.888504 33.834256 33.780163
33.726197 33.672335 33.618550 33.564818 33.511111
33.888889 33.958394 34.027930 34.097529 34.167219 34.237034 34.306999 34.377149
34.447507 34.518106 34.588967 34.660123 34.731590 34.803401 34.875568 34.948123
35.021072 35.094445 35.168245 35.242499 35.317205 35.392386 35.468034 35.544172
35.620783 35.697887 35.775462 35.853522 35.932040 36.011026 36.090445 36.170304
36.250559 36.331213 36.412216 36.493564 36.575201 36.657118 36.739252 36.821588
36.904056 36.986634 37.069248 37.151870 37.234419 37.316860 37.399108 37.481123
37.562813 37.644132 37.724986 37.805323 37.885043 37.964092 38.042365 38.119805
38.196305 38.271804 38.346192 38.419407 38.491340 38.561923 38.631050 38.698653
38.764624 38.828898 38.891370 38.951972 39.010606 39.067205 39.121674 39.173951
39.223945 39.271598 39.316826 39.359575 39.399768 39.437357 39.472273 39.504474
39.533900 39.560514 39.584268 39.605132 39.623066 39.638048 39.650050 39.659057
39.665052 39.668027 39.667977 39.664902 39.658809 39.649705 39.637607 39.622532
39.604508 39.583557 39.559721 39.533028 39.503529 39.471261 39.436284 39.398641
39.358401 39.315614 39.270356 39.222682 39.172678 39.120401 39.065943 39.009367
38.950769 38.890215 38.827807 38.763610 38.697731 38.630237 38.561237 38.490796
38.419026 38.345992 38.271804 38.196526 38.120269 38.043094 37.965109 37.886372
37.806989 37.727014 37.646549 37.565645 37.484399 37.402857 37.321111 37.239202
37.157217 37.075191 36.993205 36.911289 36.829517 36.747914 36.666547 36.585434
36.504639 36.424170 36.344086 36.264390 36.185132 36.106313 36.027973 35.950109
35.872755 35.795901 35.719576 35.643765 35.568491 35.493735 35.419513 35.345802
35.272613 35.199919 35.127724 35.056001 34.984748 34.913933 34.843552 34.773569
34.703975 34.634735 34.565834 34.497236 34.428923 34.360857 34.293016 34.225364
34.157875 34.090514 34.023252 33.956054 33.888889
34.266667 34.350122 34.433616 34.517183 34.600863 34.684690 34.768703 34.852932
34.937419 35.022189 35.107283 35.192723 35.278549 35.364778 35.451450 35.538574
35.626189 35.714300 35.802942 35.892115 35.981850 36.072141 36.163015 36.254459
36.346496 36.439106 36.532308 36.626073 36.720415 36.815298 36.910731 37.006669
37.103115 37.200015 37.297367 37.395110 37.493233 37.591667 37.690395 37.789340
37.888478 37.987723 38.087046 38.186352 38.285605 38.384702 38.483602 38.582195
38.680431 38.778198 38.875436 38.972029 39.067913 39.162965 39.257116 39.350241
39.442266 39.533063 39.622555 39.710612 39.797155 39.882053 39.965227 40.046544
40.125927 40.203245 40.278419 40.351326 40.421885 40.489979 40.555530 40.618426
40.678595 40.735930 40.790364 40.841801 40.890177 40.935407 40.977433 41.016180
41.051599 41.083625 41.112217 41.137323 41.158910 41.176939 41.191386 41.202225
41.209441 41.213022 41.212962 41.209262 41.201928 41.190973 41.176411 41.158271
41.136575 41.111366 41.082674 41.050555 41.015049 40.976221 40.934122 40.888828
40.840396 40.788913 40.734443 40.677083 40.616902 40.554006 40.488468 40.420402
40.349886 40.277038 40.201939 40.124714 40.045443 39.964256 39.881234 39.796508
39.710159 39.622319 39.533068 39.442537 39.350803 39.257996 39.164190 39.069513
38.974033 38.877875 38.781102 38.683835 38.586131 38.488105 38.389808 38.291349
38.192773 38.094182 37.995614 37.897163 37.798861 37.700794 37.602987 37.505519
37.408406 37.311719 37.215469 37.119719 37.024471 36.929780 36.835643 36.742106
36.649161 36.556844 36.465142 36.374085 36.283653 36.193868 36.104705 36.016181
35.928264 35.840966 35.754250 35.668121 35.582542 35.497507 35.412979 35.328946
35.245369 35.162230 35.079489 34.997123 34.915090 34.833364 34.751902 34.670674
34.589637 34.508758 34.427995 34.347311 34.266667
34.644444 34.741877 34.839354 34.936919 35.034612 35.132483 35.230565 35.328909
35.427546 35.526526 35.625874 35.725640 35.825846 35.926539 36.027735 36.129480
36.231782 36.334686 36.438193 36.542344 36.647133 36.752597 36.858724 36.965543
37.073035 37.181226 37.290086 37.399636 37.509837 37.620704 37.732188 37.844297
37.956974 38.070220 38.183966 38.298207 38.412865 38.527925 38.643302 38.758971
38.874838 38.990871 39.106965 39.223081 39.339105 39.454989 39.570612 39.685918
39.800777 39.915127 40.028832 40.141820 40.253951 40.365148 40.475264 40.584216
40.691855 40.798094 40.902779 41.005821 41.107065 41.206418 41.303727 41.398898
41.491779 41.582275 41.670239 41.755576 41.838145 41.917854 41.994567 42.068195
42.138612 42.205735 42.269444 42.329663 42.386284 42.439238 42.488428 42.533794
42.575252 42.612750 42.646218 42.675614 42.700883 42.721993 42.738904 42.751596
42.760043 42.764236 42.764166 42.759835 42.751250 42.738423 42.721378 42.700138
42.674743 42.645226 42.611643 42.574037 42.532477 42.487018 42.437742 42.384713
42.328027 42.267755 42.204004 42.136853 42.066422 41.992793 41.916097 41.836421
41.753902 41.668633 41.580757 41.490370 41.397619 41.302601 41.205468 41.106316
41.005298 40.902510 40.798106 40.692177 40.584878 40.476297 40.366585 40.255825
40.144165 40.031683 39.918523 39.804755 39.690517 39.575872 39.460953 39.345814
39.230579 39.115298 39.000084 38.884978 38.770087 38.655442 38.541141 38.427206
38.313727 38.200719 38.088259 37.976355 37.865076 37.754421 37.644450 37.535154
37.426584 37.318724 37.211616 37.105236 36.999618 36.894734 36.790606 36.687203
36.584537 36.482573 36.381316 36.280726 36.180800 36.081495 35.982801 35.884672
35.787092 35.690013 35.593412 35.497239 35.401468 35.306046 35.210943 35.116107
35.021501 34.927075 34.832789 34.738593 34.644444
35.022222 35.133663 35.245154 35.356745 35.468488 35.580428 35.692619 35.805102
35.917933 36.031145 36.144795 36.258910 36.373547 36.488728 36.604505 36.720893
36.837944 36.955666 37.074104 37.193260 37.313176 37.433842 37.555298 37.677525
37.800556 37.924362 38.048971 38.174344 38.300501 38.427392 38.555031 38.683358
38.812377 38.942018 39.072276 39.203070 39.334387 39.466134 39.598290 39.730750
39.863483 39.996374 40.129383 40.262385 40.395329 40.528082 40.660582 40.792687
40.924328 41.055354 41.185686 41.315167 41.443710 41.571151 41.697398 41.822281
41.945701 42.067486 42.187532 42.305663 42.421774 42.535688 42.647297 42.756425
42.862963 42.966739 43.067645 43.165514 43.260238 43.351657 43.439669 43.524120
43.604913 43.681906 43.755007 43.824085 43.889055 43.949802 44.006248 44.058292
44.105866 44.148885 44.187292 44.221017 44.250016 44.274235 44.293643 44.308204
44.317899 44.322710 44.322630 44.317662 44.307810 44.293094 44.273534 44.249167
44.220025 44.186162 44.147624 44.104481 44.056791 44.004641 43.948097 43.887265
43.822221 43.753082 43.679934 43.602909 43.522100 43.437649 43.349656 43.258274
43.163607 43.065818 42.965013 42.861360 42.754971 42.646018 42.534611 42.420926
42.305074 42.187233 42.067508 41.946078 41.823046 41.698587 41.572801 41.445860
41.317855 41.188954 41.059243 40.928884 40.797952 40.666603 40.534906 40.403006
40.270964 40.138916 40.006913 39.875081 39.743463 39.612175 39.481248 39.350789
39.220819 39.091434 38.962646 38.834539 38.707118 38.580455 38.454545 38.329450
38.205157 38.081717 37.959110 37.837376 37.716487 37.596474 37.477302 37.358993
37.241505 37.124851 37.008986 36.893910 36.779577 36.665979 36.553063 36.440816
36.329182 36.218140 36.107633 35.997632 35.888079 35.778941 35.670157 35.561689
35.453479 35.345481 35.237639 35.129905 35.022222
35.400000 35.525483 35.651022 35.776677 35.902500 36.028552 36.154881 36.281549
36.408600 36.536096 36.664073 36.792594 36.921689 37.051417 37.181802 37.312901
37.444729 37.577340 37.710739 37.844978 37.980051 38.116006 38.252826 38.390552
38.529159 38.668680 38.809078 38.950380 39.092538 39.235569 39.379412 39.524079
39.669494 39.815660 39.962490 40.109976 40.258018 40.406598 40.555604 40.705008
40.854685 41.004595 41.154603 41.304658 41.454614 41.604407 41.753882 41.902965
42.051490 42.199375 42.346442 42.492602 42.637670 42.781546 42.924040 43.065045
43.204365 43.341888 43.477416 43.610828 43.741928 43.870591 43.996620 44.119889
44.240205 44.357440 44.471405 44.581976 44.688968 44.792260 44.891678 44.987104
45.078373 45.165377 45.247961 45.326025 45.399429 45.468081 45.531856 45.590675
45.644429 45.693049 45.736446 45.774564 45.807331 45.834706 45.856637 45.873095
45.884051 45.889489 45.889400 45.883784 45.872653 45.856021 45.833920 45.806379
45.773451 45.735179 45.691635 45.642875 45.588991 45.530053 45.466169 45.397421
45.323935 45.245803 45.163166 45.076127 44.984839 44.889414 44.790018 44.686767
44.579841 44.469358 44.355507 44.238411 44.118264 43.995191 43.869389 43.740984
43.610176 43.477089 43.341924 43.204799 43.065916 42.925388 42.783413 42.640099
42.495637 42.350130 42.203762 42.056626 41.908900 41.760667 41.612096 41.463261
41.314321 41.165339 41.016463 40.867745 40.719323 40.571238 40.423614 40.276483
40.129958 39.984057 39.838882 39.694442 39.550825 39.408030 39.266133 39.125124
38.985065 38.845937 38.707793 38.570604 38.434409 38.299174 38.164926 38.031624
37.899286 37.767862 37.637360 37.507728 37.378961 37.251002 37.123841 36.997414
36.871702 36.746642 36.622205 36.498325 36.374966 36.252064 36.129575 36.007433
35.885591 35.763983 35.642557 35.521248 35.400000
35.777778 35.917341 36.056969 36.196723 36.336670 36.476866 36.617381 36.758267
36.899592 37.041401 37.183765 37.326721 37.470337 37.614643 37.759707 37.905547
38.052228 38.199760 38.348204 38.497560 38.647883 38.799161 38.951444 39.104709
39.258999 39.414278 39.570581 39.727861 39.886143 40.045366 40.205547 40.366611
40.528565 40.691320 40.854873 41.019120 41.184046 41.349536 41.515561 41.681992
41.848789 42.015810 42.183001 42.350208 42.517366 42.684306 42.850954 43.017128
43.182741 43.347603 43.511615 43.674578 43.836383 43.996823 44.155780 44.313040
44.468478 44.621875 44.773100 44.921931 45.068233 45.211784 45.352443 45.489992
45.624289 45.755118 45.882340 46.005743 46.125192 46.240482 46.351483 46.458002
46.559913 46.657037 46.749257 46.836406 46.918378 46.995025 47.066248 47.131919
47.191953 47.246240 47.294709 47.337270 47.373868 47.404435 47.428930 47.447309
47.459545 47.465619 47.465520 47.459250 47.446819 47.428248 47.403564 47.372814
47.336038 47.293306 47.244674 47.190233 47.130055 47.064252 46.992908 46.916156
46.834092 46.746868 46.654590 46.557427 46.455496 46.348978 46.238001 46.122758
46.003382 45.880078 45.752982 45.622309 45.488198 45.350869 45.210461 45.067198
44.921219 44.772750 44.621927 44.468973 44.314021 44.157292 43.998911 43.839096
43.677964 43.515726 43.352491 43.188461 43.023735 42.858507 42.692864 42.526989
42.360959 42.194945 42.029011 41.863317 41.697913 41.532947 41.368459 41.204580
41.041339 40.878853 40.717140 40.556304 40.396349 40.237366 40.079348 39.922373
39.766423 39.611562 39.457763 39.305077 39.153469 39.002974 38.853550 38.705222
38.557940 38.411716 38.266493 38.122273 37.978995 37.836649 37.695169 37.554537
37.414682 37.275577 37.137150 36.999364 36.862146 36.725452 36.589208 36.453364
36.317845 36.182596 36.047544 35.912628 35.777778
36.155556 36.309242 36.462998 36.616898 36.771005 36.925398 37.080134 37.235292
37.390924 37.547109 37.703892 37.861350 38.019521 38.178479 38.338253 38.498915
38.660484 38.823027 38.986551 39.151121 39.316731 39.483438 39.651225 39.820143
39.990161 40.161321 40.333579 40.506969 40.681430 40.856987 41.033566 41.211180
41.389740 41.569246 41.749595 41.930776 42.112669 42.295249 42.478383 42.662032
42.846048 43.030378 43.214859 43.399426 43.583900 43.768204 43.952145 44.135633
44.318464 44.500533 44.681626 44.861627 45.040312 45.217554 45.393120 45.566876
45.738582 45.908095 46.075171 46.239661 46.401321 46.559996 46.715440 46.867500
47.015932 47.160579 47.301206 47.437658 47.569706 47.697200 47.819920 47.937724
48.050405 48.157826 48.259798 48.356194 48.446841 48.531624 48.610389 48.683035
48.749429 48.809484 48.863089 48.910175 48.950653 48.984469 49.011562 49.031895
49.045431 49.052150 49.052042 49.045107 49.031358 49.010815 48.983515 48.949497
48.908824 48.861551 48.807767 48.747543 48.680992 48.608201 48.529305 48.444405
48.353659 48.257181 48.155146 48.047681 47.934979 47.817178 47.694484 47.567042
47.435075 47.298731 47.158244 47.013768 46.865542 46.713723 46.558556 46.400197
46.238894 46.074802 45.908168 45.739143 45.567972 45.394799 45.219867 45.043312
44.865369 44.686164 44.505927 44.324772 44.142919 43.960470 43.777634 43.594502
43.411270 43.228014 43.044918 42.862045 42.679565 42.497526 42.316084 42.135275
41.955238 41.775995 41.597671 41.420275 41.243916 41.068592 40.894394 40.721310
40.549416 40.378688 40.209188 40.040881 39.873815 39.707946 39.543307 39.379847
39.217585 39.056462 38.896485 38.737589 38.579768 38.422952 38.267125 38.112212
37.958185 37.804967 37.652521 37.500767 37.349660 37.199118 37.049088 36.899490
36.750262 36.601325 36.452613 36.304046 36.155556
36.533333 36.701187 36.869120 37.037206 37.205528 37.374155 37.543170 37.712637
37.882641 38.053236 38.224508 38.396503 38.569305 38.742950 38.917520 39.093040
39.269588 39.447179 39.625885 39.805708 39.986715 40.168894 40.352306 40.536923
40.722799 40.909892 41.098244 41.287800 41.478591 41.670546 41.863684 42.057917
42.253254 42.449589 42.646918 42.845118 43.044170 43.243936 43.444382 43.645353
43.846801 44.048553 44.250548 44.452596 44.654620 44.856418 45.057895 45.258836
45.459133 45.658557 45.856986 46.054180 46.250005 46.444209 46.636650 46.827067
47.015307 47.201104 47.384298 47.564618 47.741899 47.915870 48.086360 48.253100
48.415919 48.574553 48.728829 48.878492 49.023373 49.163225 49.297885 49.427120
49.550774 49.668630 49.780541 49.886308 49.985797 50.078828 50.165281 50.244999
50.317877 50.383780 50.442624 50.494297 50.538731 50.575844 50.605586 50.627902
50.642761 50.650137 50.650020 50.642410 50.627318 50.604774 50.574807 50.537475
50.492829 50.440953 50.381915 50.315828 50.242779 50.162905 50.076309 49.983152
49.883555 49.777699 49.665719 49.547818 49.424140 49.294908 49.160277 49.020483
48.875690 48.726147 48.572022 48.413577 48.250982 48.084504 47.914317 47.740692
47.563800 47.383914 47.201203 47.015938 46.828281 46.638501 46.446752 46.253297
46.058280 45.861957 45.664460 45.466035 45.266803 45.066997 44.866725 44.666207
44.465536 44.264920 44.064435 43.864274 43.664500 43.465288 43.266687 43.068855
42.871827 42.675743 42.480623 42.286593 42.093657 41.901923 41.711383 41.522128
41.334139 41.147489 40.962146 40.778169 40.595515 40.414227 40.234253 40.055620
39.878267 39.702208 39.527375 39.353768 39.181312 39.009994 38.839734 38.670507
38.502231 38.334868 38.168333 38.002579 37.837519 37.673096 37.509223 37.345836
37.182847 37.020185 36.857764 36.695509 36.533333
36.911111 37.093182 37.275337 37.457664 37.640242 37.823163 38.006497 38.190339
38.374752 38.559830 38.745628 38.932239 39.119709 39.308128 39.497531 39.688004
39.879572 40.072314 40.266243 40.461433 40.657882 40.855657 41.054740 41.255192
41.456978 41.660149 41.864654 42.070534 42.277720 42.486240 42.696009 42.907043
43.119237 43.332593 43.546990 43.762413 43.978723 44.195890 44.413756 44.632277
44.851274 45.070688 45.290324 45.510103 45.729815 45.949366 46.168527 46.387189
46.605110 46.822164 47.038094 47.252763 47.465901 47.677356 47.886850 48.094219
48.299177 48.501550 48.701048 48.897490 49.090581 49.280135 49.465858 49.647562
49.824954 49.997847 50.165955 50.329091 50.486980 50.639439 50.786206 50.927105
51.061890 51.190394 51.312389 51.427722 51.536183 51.637635 51.731891 51.818829
51.898289 51.970165 52.034325 52.090684 52.139135 52.179615 52.212047 52.236387
52.252592 52.260638 52.260512 52.252213 52.235758 52.211170 52.178496 52.137781
52.089101 52.032523 51.968154 51.896079 51.816436 51.729328 51.634919 51.533331
51.424754 51.309325 51.187257 51.058703 50.923895 50.782999 50.636264 50.483868
50.326075 50.163068 49.995126 49.822437 49.645288 49.463869 49.278475 49.089294
48.896625 48.700655 48.501680 48.299882 48.095556 47.888877 47.680133 47.469490
47.257228 47.043502 46.828582 46.612609 46.395843 46.178410 45.960555 45.742390
45.524146 45.305917 45.087918 44.870228 44.653045 44.436430 44.220564 44.005492
43.791376 43.578245 43.366244 43.155384 42.945793 42.737468 42.530516 42.324921
42.120773 41.918043 41.716802 41.517008 41.318715 41.121873 40.926517 40.732586
40.540101 40.348992 40.159264 39.970841 39.783713 39.597796 39.413069 39.229442
39.046882 38.865296 38.684638 38.504812 38.325764 38.147396 37.969643 37.792408
37.615619 37.439179 37.263009 37.087015 36.911111
37.288889 37.485227 37.681659 37.878274 38.075169 38.272426 38.470146 38.668403
38.867298 39.066898 39.267303 39.468570 39.670797 39.874029 40.078362 40.283829
40.490522 40.698459 40.907727 41.118330 41.330347 41.543767 41.758661 41.975001
42.192848 42.412156 42.632977 42.855246 43.079001 43.304161 43.530749 43.758665
43.987917 44.218385 44.450064 44.682811 44.916605 45.151285 45.386811 45.623003
45.859802 46.097010 46.334551 46.572206 46.809881 47.047340 47.284471 47.521020
47.756860 47.991720 48.225456 48.457783 48.688544 48.917442 49.144303 49.368823
49.590816 49.809970 50.026090 50.238858 50.448075 50.653419 50.854686 51.051557
51.243826 51.431180 51.613412 51.790217 51.961393 52.126647 52.285784 52.438526
52.584685 52.724004 52.856307 52.981355 53.098990 53.208996 53.311231 53.405506
53.491696 53.569643 53.639241 53.700362 53.752922 53.796824 53.832007 53.858407
53.875987 53.884715 53.884580 53.875581 53.857732 53.831068 53.795625 53.751470
53.698665 53.637310 53.567487 53.489329 53.402941 53.308485 53.206086 53.095935
52.978175 52.853025 52.720644 52.581273 52.435088 52.282351 52.123250 51.958064
51.786991 51.610326 51.428273 51.241139 51.049132 50.852568 50.651655 50.446714
50.237952 50.025691 49.810134 49.591602 49.370289 49.146513 48.920458 48.692436
48.462618 48.231305 47.998657 47.764963 47.530366 47.295141 47.059417 46.823451
46.587356 46.351372 46.115593 45.880243 45.645397 45.411258 45.177886 44.945464
44.714033 44.483756 44.254657 44.026880 43.800431 43.575435 43.351882 43.129876
42.909394 42.690519 42.473215 42.257547 42.043465 41.831016 41.620139 41.410864
41.203118 40.996916 40.792177 40.588897 40.386990 40.186437 39.987145 39.789083
39.592150 39.396305 39.201443 39.007510 38.814401 38.622050 38.430351 38.239230
38.048581 37.858322 37.668348 37.478571 37.288889
37.666667 37.877327 38.088087 38.299050 38.510308 38.721969 38.934118 39.146864
39.360284 39.574488 39.789541 40.005552 40.222576 40.440720 40.660025 40.880594
41.102455 41.325706 41.550359 41.776505 42.004140 42.233347 42.464106 42.696487
42.930455 43.166068 43.403270 43.642109 43.882508 44.124500 44.367990 44.612995
44.859398 45.107200 45.356263 45.606571 45.857963 46.110405 46.363717 46.617844
46.872583 47.127863 47.383459 47.639279 47.895079 48.150749 48.406023 48.660773
48.914716 49.167706 49.419442 49.669761 49.918349 50.165027 50.409469 50.651481
50.890728 51.127005 51.359970 51.589408 51.814975 52.036449 52.253484 52.465857
52.673224 52.875362 53.071934 53.262719 53.447392 53.625737 53.797443 53.962303
54.120024 54.270411 54.413194 54.548190 54.675153 54.793919 54.904269 55.006058
55.099096 55.183259 55.258391 55.324389 55.381130 55.428537 55.466521 55.495030
55.514011 55.523437 55.523293 55.513578 55.494311 55.465520 55.427260 55.379583
55.322581 55.256332 55.180962 55.096573 55.003325 54.901343 54.790818 54.671898
54.544802 54.409698 54.266833 54.116390 53.958642 53.793788 53.622121 53.443850
53.259289 53.068654 52.872274 52.670372 52.463286 52.251243 52.034588 51.813546
51.588466 51.359572 51.127210 50.891598 50.653081 50.411865 50.168289 49.922548
49.674970 49.425739 49.175169 48.923428 48.670817 48.417485 48.163719 47.909648
47.655542 47.401511 47.147805 46.894515 46.641870 46.389943 46.138941 45.888917
45.640059 45.392398 45.146101 44.901183 44.657787 44.415910 44.175675 43.937063
43.700173 43.464974 43.231543 42.999833 42.769904 42.541694 42.315244 42.090482
41.867429 41.646003 41.426208 41.207953 40.991227 40.775929 40.562034 40.349436
40.138095 39.927899 39.718797 39.510675 39.303468 39.097060 38.891377 38.686303
38.481753 38.277614 38.073791 37.870176 37.666667
38.044444 38.269483 38.494631 38.719992 38.945680 39.171792 39.398444 39.625724
39.853750 40.082599 40.312389 40.543187 40.775108 41.008206 41.242592 41.478307
41.715457 41.954067 42.194237 42.435974 42.679372 42.924419 43.171199 43.419683
43.669940 43.921924 44.175692 44.431175 44.688416 44.947325 45.207930 45.470118
45.733899 45.999139 46.265830 46.533814 46.803063 47.073396 47.344767 47.616970
47.889938 48.163444 48.437399 48.711552 48.985795 49.259855 49.533604 49.806747
50.079137 50.350460 50.620549 50.889075 51.155851 51.420534 51.682922 51.942660
52.199531 52.453170 52.703351 52.949702 53.191987 53.429835 53.663001 53.891118
54.113938 54.331099 54.542354 54.747351 54.945848 55.137505 55.322089 55.499277
55.668848 55.830499 55.984025 56.129146 56.265674 56.393358 56.512030 56.621470