# vtk DataFile Version 3.0
Steady-state temperature (Jacobi)
ASCII
DATASET STRUCTURED_POINTS
DIMENSIONS 181 181 1
ORIGIN 0.0 0.0 0.0
SPACING 0.05 0.05 1.0
POINT_DATA 32761
SCALARS Temperature float 1
LOOKUP_TABLE default
32.000000 32.000000 32.000000 32.000000 32.000000 32.000000 32.000000 32.000000
32.000000 32.000000 32.000000 32.000000 32.000000 32.000000 32.000000 32.000000
32.000000 32.000000 32.000000 32.000000 32.000000 32.000000 32.000000 32.000000
32.000000 32.000000 32.000000 32.000000 32.000000 32.000000 32.000000 32.000000
32.000000 32.000000 32.000000 32.000000 32.000000 32.000000 32.000000 32.000000
32.000000 32.000000 32.000000 32.000000 32.000000 32.000000 32.000000 32.000000
32.000000 32.000000 32.000000 32.000000 32.000000 32.000000 32.000000 32.000000
32.000000 32.000000 32.000000 32.000000 32.000000 32.000000 32.000000 32.000000
32.000000 32.000000 32.000000 32.000000 32.000000 32.000000 32.000000 32.000000
32.000000 32.000000 32.000000 32.000000 32.000000 32.000000 32.000000 32.000000
32.000000 32.000000 32.000000 32.000000 32.000000 32.000000 32.000000 32.000000
32.000000 32.000000 32.000000 32.000000 32.000000 32.000000 32.000000 32.000000
32.000000 32.000000 32.000000 32.000000 32.000000 32.000000 32.000000 32.000000
32.000000 32.000000 32.000000 32.000000 32.000000 32.000000 32.000000 32.000000
32.000000 32.000000 32.000000 32.000000 32.000000 32.000000 32.000000 32.000000
32.000000 32.000000 32.000000 32.000000 32.000000 32.000000 32.000000 32.000000
32.000000 32.000000 32.000000 32.000000 32.000000 32.000000 32.000000 32.000000
32.000000 32.000000 32.000000 32.000000 32.000000 32.000000 32.000000 32.000000
32.000000 32.000000 32.000000 32.000000 32.000000 32.000000 32.000000 32.000000
32.000000 32.000000 32.000000 32.000000 32.000000 32.000000 32.000000 32.000000
32.000000 32.000000 32.000000 32.000000 32.000000 32.000000 32.000000 32.000000
32.000000 32.000000 32.000000 32.000000 32.000000 32.000000 32.000000 32.000000
32.000000 32.000000 32.000000 32.000000 32.000000
32.377778 32.392177 32.406581 32.420997 32.435430 32.449886 32.464369 32.478887
32.493443 32.508043 32.522692 32.537395 32.552155 32.566978 32.581867 32.596827
32.611859 32.626968 32.642156 32.657426 32.672779 32.688218 32.703741 32.719353
32.735051 32.750837 32.766708 32.782665 32.798703 32.814824 32.831021 32.847295
32.863637 32.880048 32.896517 32.913043 32.929616 32.946233 32.962882 32.979559
32.996252 33.012955 33.029655 33.046344 33.063008 33.079639 33.096220 33.112745
33.129194 33.145559 33.161821 33.177969 33.193986 33.209859 33.225568 33.241103
33.256441 33.271572 33.286474 33.301134 33.315532 33.329654 33.343479 33.356995
33.370180 33.383021 33.395498 33.407599 33.419302 33.430597 33.441464 33.451891
33.461861 33.471361 33.480377 33.488897 33.496906 33.504395 33.511351 33.517765
33.523626 33.528927 33.533658 33.537813 33.541385 33.544369 33.546760 33.548555
33.549751 33.550346 33.550339 33.549730 33.548521 33.546713 33.544309 33.541312
33.537729 33.533563 33.528822 33.523512 33.517643 33.511222 33.504261 33.496767
33.488755 33.480235 33.471220 33.461722 33.451757 33.441338 33.430480 33.419197
33.407508 33.395424 33.382967 33.370149 33.356990 33.343504 33.329711 33.315625
33.301268 33.286652 33.271798 33.256719 33.241437 33.225964 33.210320 33.194517
33.178577 33.162508 33.146332 33.130059 33.113706 33.097285 33.080812 33.064295
33.047752 33.031190 33.014625 32.998062 32.981516 32.964993 32.948505 32.932056
32.915659 32.899316 32.883038 32.866826 32.850691 32.834631 32.818657 32.802766
32.786967 32.771257 32.755642 32.740120 32.724695 32.709364 32.694130 32.678990
32.663945 32.648990 32.634127 32.619351 32.604660 32.590051 32.575522 32.561066
32.546681 32.532363 32.518106 32.503906 32.489759 32.475657 32.461597 32.447572
32.433577 32.419606 32.405653 32.391713 32.377778
32.755556 32.784357 32.813170 32.842006 32.870877 32.899792 32.928765 32.957803
32.986921 33.016125 33.045429 33.074838 33.104365 33.134016 33.163800 33.193723
33.223796 33.254019 33.284403 33.314947 33.345662 33.376544 33.407602 33.438831
33.470238 33.501815 33.533568 33.565488 33.597578 33.629827 33.662235 33.694789
33.727488 33.760316 33.793270 33.826331 33.859494 33.892736 33.926052 33.959417
33.992821 34.026238 34.059656 34.093045 34.126393 34.159667 34.192852 34.225913
34.258832 34.291575 34.324121 34.356432 34.388487 34.420247 34.451689 34.482772
34.513473 34.543749 34.573575 34.602911 34.631729 34.659987 34.687660 34.714706
34.741098 34.766794 34.791770 34.815984 34.839412 34.862015 34.883767 34.904634
34.924590 34.943603 34.961650 34.978701 34.994733 35.009721 35.023645 35.036482
35.048215 35.058823 35.068293 35.076609 35.083759 35.089731 35.094518 35.098111
35.100504 35.101695 35.101682 35.100464 35.098043 35.094424 35.089612 35.083615
35.076441 35.068104 35.058613 35.047987 35.036238 35.023388 35.009453 34.994457
34.978418 34.961366 34.943321 34.924314 34.904367 34.883515 34.861781 34.839202
34.815803 34.791622 34.766687 34.741036 34.714696 34.687709 34.660102 34.631916
34.603178 34.573931 34.544200 34.514029 34.483442 34.452481 34.421170 34.389551
34.357647 34.325497 34.293122 34.260562 34.227836 34.194981 34.162013 34.128968
34.095862 34.062727 34.029576 33.996441 33.963331 33.930274 33.897281 33.864375
33.831564 33.798870 33.766297 33.733867 33.701580 33.669455 33.637492 33.605705
33.574093 33.542667 33.511425 33.480376 33.449515 33.418849 33.388371 33.358086
33.327985 33.298072 33.268337 33.238781 33.209392 33.180171 33.151104 33.122189
33.093413 33.064772 33.036254 33.007850 32.979549 32.951343 32.923218 32.895164
32.867170 32.839224 32.811314 32.783429 32.755556
33.133333 33.176546 33.219777 33.263042 33.306357 33.349742 33.393211 33.436782
33.480468 33.524288 33.568253 33.612382 33.656683 33.701175 33.745863 33.790765
33.835884 33.881238 33.926826 33.972664 34.018749 34.065095 34.111696 34.158563
34.205689 34.253081 34.300727 34.348635 34.396789 34.445192 34.493824 34.542688
34.591758 34.641035 34.690489 34.740117 34.789887 34.839790 34.889791 34.939879
34.990015 35.040183 35.090341 35.140470 35.190525 35.240483 35.290294 35.339934
35.389351 35.438515 35.487371 35.535890 35.584011 35.631704 35.678906 35.725584
35.771675 35.817142 35.861923 35.905979 35.949247 35.991687 36.033238 36.073857
36.113485 36.152079 36.189582 36.225951 36.261130 36.295079 36.327743 36.359086
36.389054 36.417612 36.444713 36.470324 36.494401 36.516914 36.537824 36.557106
36.574726 36.590661 36.604883 36.617374 36.628112 36.637084 36.644272 36.649669
36.653264 36.655053 36.655032 36.653203 36.649567 36.644131 36.636905 36.627896
36.617123 36.604599 36.590347 36.574385 36.556741 36.537439 36.516511 36.493986
36.469901 36.444288 36.417190 36.388639 36.358686 36.327365 36.294729 36.260815
36.225679 36.189361 36.151919 36.113393 36.073844 36.033312 35.991860 35.949529
35.906382 35.862458 35.817821 35.772510 35.726589 35.680094 35.633089 35.585608
35.537712 35.489436 35.440837 35.391947 35.342821 35.293489 35.244003 35.194389
35.144697 35.094949 35.045192 34.995444 34.945750 34.896125 34.846607 34.797209
34.747967 34.698889 34.650008 34.601327 34.552876 34.504656 34.456691 34.408980
34.361544 34.314378 34.267498 34.220898 34.174591 34.128568 34.082837 34.037386
33.992223 33.947333 33.902719 33.858365 33.814272 33.770422 33.726811 33.683422
33.640249 33.597274 33.554486 33.511867 33.469407 33.427084 33.384887 33.342796
33.300795 33.258866 33.216992 33.175153 33.133333
33.511111 33.568748 33.626408 33.684114 33.741889 33.799755 33.857735 33.915849
33.974121 34.032567 34.091213 34.150071 34.209167 34.268510 34.328123 34.388015
34.448207 34.508702 34.569521 34.630664 34.692149 34.753971 34.816146 34.878666
34.941544 35.004767 35.068344 35.132256 35.196513 35.261088 35.325987 35.391180
35.456667 35.522414 35.588417 35.654636 35.721063 35.787653 35.854393 35.921233
35.988156 36.055106 36.122063 36.188965 36.255788 36.322465 36.388966 36.455223
36.521200 36.586825 36.652058 36.716825 36.781081 36.844747 36.907779 36.970095
37.031645 37.092348 37.152152 37.210973 37.268759 37.325425 37.380919 37.435157
37.488085 37.539622 37.589713 37.638279 37.685269 37.730605 37.774237 37.816093
37.856124 37.894264 37.930467 37.964670 37.996834 38.026901 38.054835 38.080588
38.104126 38.125408 38.144408 38.161091 38.175437 38.187419 38.197023 38.204231
38.209034 38.211423 38.211396 38.208952 38.204096 38.196835 38.187181 38.175150
38.160757 38.144031 38.124991 38.103672 38.080101 38.054322 38.026365 37.996282
37.964108 37.929901 37.893702 37.855574 37.815562 37.773734 37.730139 37.684850
37.637918 37.589420 37.539409 37.487964 37.435141 37.381020 37.325658 37.269137
37.211511 37.152866 37.093254 37.032761 36.971436 36.909365 36.846596 36.783211
36.719257 36.654813 36.589923 36.524663 36.459073 36.393227 36.327160 36.260941
36.194602 36.128208 36.061787 35.995397 35.929063 35.862840 35.796744 35.730829
35.665105 35.599619 35.534380 35.469428 35.404767 35.340432 35.276423 35.212771
35.149470 35.086547 35.023993 34.961828 34.900041 34.838646 34.777631 34.717003
34.656748 34.596870 34.537349 34.478188 34.419365 34.360876 34.302699 34.244827
34.187236 34.129916 34.072841 34.015998 33.959360 33.902912 33.846628 33.790488
33.734467 33.678544 33.622692 33.566890 33.511111
33.888889 33.960967 34.033073 34.105237 34.177487 34.249853 34.322359 34.395037
34.467909 34.541005 34.614345 34.687959 34.761863 34.836086 34.910639 34.985552
35.060830 35.136501 35.212566 35.289051 35.365952 35.443290 35.521058 35.599275
35.677925 35.757024 35.836552 35.916521 35.996903 36.077706 36.158896 36.240477
36.322409 36.404688 36.487270 36.570146 36.653264 36.736610 36.820125 36.903790
36.987540 37.071349 37.155147 37.238902 37.322537 37.406016 37.489256 37.572214
37.654804 37.736977 37.818641 37.899744 37.980190 38.059922 38.138841 38.216886
38.293954 38.369984 38.444870 38.518547 38.590911 38.661894 38.731391 38.799335
38.865623 38.930186 38.992923 39.053768 39.112624 39.169424 39.224076 39.276518
39.326663 39.374450 39.419799 39.462656 39.502947 39.540622 39.575616 39.607885
39.637373 39.664041 39.687844 39.708750 39.726722 39.741737 39.753768 39.762801
39.768818 39.771812 39.771778 39.768716 39.762632 39.753534 39.741439 39.726363
39.708333 39.687373 39.663520 39.636807 39.607279 39.574976 39.539954 39.502259
39.461955 39.419094 39.373749 39.325976 39.275856 39.223450 39.168844 39.112103
39.053319 38.992560 38.929922 38.865474 38.799317 38.731520 38.662187 38.591386
38.519223 38.445765 38.371120 38.295351 38.218565 38.140825 38.062235 37.982855
37.902787 37.822086 37.740852 37.659135 37.577030 37.494585 37.411888 37.328982
37.245951 37.162831 37.079702 36.996595 36.913581 36.830686 36.747978 36.665474
36.583236 36.501276 36.419650 36.338363 36.257465 36.176956 36.096879 36.017230
35.938043 35.859312 35.781063 35.703285 35.625999 35.549190 35.472873 35.397028
35.321665 35.246761 35.172320 35.098316 35.024750 34.951591 34.878835 34.806452
34.734430 34.662739 34.591364 34.520272 34.449445 34.378851 34.308466 34.238259
34.168204 34.098268 34.028424 33.958641 33.888889
34.266667 34.353205 34.439779 34.526422 34.613170 34.700054 34.787112 34.874372
34.961872 35.049635 35.137700 35.226087 35.314832 35.403952 35.493482 35.583433
35.673838 35.764703 35.856059 35.947906 36.040270 36.133147 36.226559 36.320495
36.414974 36.509975 36.605516 36.701567 36.798141 36.895201 36.992754 37.090756
37.189207 37.288056 37.387296 37.486869 37.586762 37.686908 37.787287 37.887824
37.988494 38.089214 38.189950 38.290613 38.391162 38.491502 38.591585 38.691308
38.790617 38.889404 38.987609 39.085119 39.181867 39.277735 39.372654 39.466502
39.559203 39.650634 39.740717 39.829326 39.916380 40.001754 40.085366 40.167091
40.246846 40.324509 40.399997 40.473192 40.544013 40.612345 40.678112 40.741204
40.801548 40.859042 40.913618 40.965183 41.013673 41.059004 41.101120 41.139948
41.175438 41.207528 41.236176 41.261332 41.282963 41.301031 41.315512 41.326381
41.333624 41.337227 41.337186 41.333502 41.326180 41.315232 41.300675 41.282534
41.260833 41.235612 41.206904 41.174760 41.139222 41.100354 41.058205 41.012849
40.964344 40.912774 40.858204 40.800727 40.740412 40.677363 40.611652 40.543391
40.472656 40.399565 40.324196 40.246672 40.167073 40.085525 40.002110 39.916954
39.830140 39.741795 39.652001 39.560883 39.468521 39.375040 39.280515 39.185069
39.088774 38.991748 38.894058 38.795819 38.697091 38.597984 38.498552 38.398900
38.299075 38.199176 38.099241 37.999364 37.899578 37.799965 37.700553 37.601419
37.502581 37.404109 37.306014 37.208358 37.111146 37.014432 36.918215 36.822540
36.727401 36.632835 36.538829 36.445414 36.352573 36.260327 36.168656 36.077573
35.987053 35.897105 35.807699 35.718837 35.630486 35.542641 35.455269 35.368358
35.281871 35.195795 35.110088 35.024733 34.939689 34.854931 34.770421 34.686129
34.602016 34.518051 34.434195 34.350413 34.266667
34.644444 34.745469 34.846534 34.947682 35.048950 35.150382 35.252013 35.353887
35.456034 35.558500 35.661310 35.764508 35.868115 35.972175 36.076702 36.181738
36.287291 36.393401 36.500070 36.607333 36.715186 36.823660 36.932744 37.042463
37.152799 37.263773 37.375358 37.487568 37.600368 37.713767 37.827719 37.942229
38.057241 38.172752 38.288697 38.405065 38.521783 38.638833 38.756130 38.873650
38.991299 39.109043 39.226782 39.344472 39.462005 39.579329 39.696328 39.812943
39.929049 40.044582 40.159409 40.273458 40.386593 40.498734 40.609740 40.719527
40.827950 40.934920 41.040290 41.143967 41.245804 41.345704 41.443521 41.539159
41.632471 41.723361 41.811687 41.897354 41.980224 42.060205 42.137165 42.211016
42.281635 42.348937 42.412809 42.473172 42.529923 42.582991 42.632285 42.677741
42.719280 42.756848 42.790380 42.819832 42.845151 42.866305 42.883256 42.895981
42.904459 42.908677 42.908630 42.904317 42.895746 42.882930 42.865891 42.844652
42.819252 42.789724 42.756123 42.718491 42.676897 42.631393 42.582062 42.528965
42.472197 42.411828 42.347963 42.280681 42.210097 42.136295 42.059401 41.979503
41.896734 41.811187 41.723001 41.632272 41.539143 41.443711 41.346124 41.246478
41.144923 41.041553 40.936520 40.829915 40.721888 40.612528 40.501982 40.390334
40.277728 40.164242 40.050016 39.935123 39.819695 39.703798 39.587559 39.471037
39.354350 39.237551 39.120748 39.003987 38.887368 38.770928 38.654759 38.538890
38.423403 38.308318 38.193711 38.079591 37.966026 37.853019 37.740625 37.628842
37.517717 37.407240 37.297448 37.188325 37.079900 36.972152 36.865102 36.758720
36.653022 36.547974 36.443582 36.339809 36.236654 36.134077 36.032069 35.930588
35.829618 35.729117 35.629061 35.529407 35.430126 35.331174 35.232519 35.134114
35.035924 34.937903 34.840012 34.742206 34.644444
35.022222 35.137761 35.253347 35.369026 35.484847 35.600851 35.717091 35.833602
35.950437 36.067627 36.185225 36.303257 36.421774 36.540796 36.660372 36.780516
36.901274 37.022654 37.144697 37.267404 37.390812 37.514913 37.639740 37.765275
37.891547 38.018528 38.146241 38.274648 38.403765 38.533545 38.663995 38.795060
38.926737 39.058961 39.191721 39.324941 39.458602 39.592616 39.726956 39.861524
39.996283 40.131124 40.266001 40.400796 40.535454 40.669845 40.803907 40.937502
41.070557 41.202927 41.334531 41.465217 41.594896 41.723410 41.850664 41.976494
42.100800 42.223414 42.344231 42.463083 42.579861 42.694394 42.806573 42.916228
43.023250 43.127471 43.228782 43.327021 43.422081 43.513806 43.602093 43.686794
43.767810 43.845004 43.918283 43.987522 44.052635 44.113509 44.170067 44.222211
44.269874 44.312971 44.351447 44.385234 44.414288 44.438556 44.458007 44.472606
44.482334 44.487175 44.487121 44.482173 44.472339 44.457636 44.438084 44.413719
44.384574 44.350701 44.312145 44.268976 44.221250 44.169052 44.112450 44.051545
43.986412 43.917167 43.843895 43.766725 43.685748 43.601104 43.512893 43.421263
43.326319 43.228217 43.127066 43.023029 42.916216 42.806796 42.694880 42.580638
42.464182 42.345682 42.225249 42.103053 41.979199 41.853858 41.727129 41.599179
41.470104 41.340063 41.209145 41.077506 40.945225 40.812452 40.679258 40.545784
40.412093 40.278316 40.144508 40.010791 39.877210 39.743876 39.610826 39.478160
39.345906 39.214155 39.082922 38.952290 38.822266 38.692920 38.564252 38.436320
38.309117 38.182691 38.057027 37.932163 37.808076 37.684796 37.562292 37.440585
37.319640 37.199467 37.080027 36.961320 36.843304 36.725972 36.609277 36.493205
36.377705 36.262758 36.148310 36.034336 35.920781 35.807612 35.694777 35.582236
35.469937 35.357836 35.245882 35.134027 35.022222
35.400000 35.530085 35.660223 35.790468 35.920870 36.051486 36.182360 36.313552
36.445099 36.577062 36.709473 36.842390 36.975841 37.109882 37.244533 37.379847
37.515837 37.652554 37.790001 37.928224 38.067219 38.207026 38.347630 38.489067
38.631312 38.774393 38.918276 39.062980 39.208460 39.354728 39.501727 39.649460
39.797859 39.946917 40.096555 40.246756 40.397427 40.548544 40.700000 40.851761
41.003709 41.155798 41.307900 41.459958 41.611833 41.763457 41.914679 42.065424
42.215532 42.364915 42.513405 42.660907 42.807244 42.952313 43.095931 43.237988
43.378296 43.516738 43.653125 43.787335 43.919176 44.048524 44.175186 44.299037
44.419888 44.537612 44.652025 44.763002 44.870365 44.973991 45.073711 45.169409
45.260923 45.348144 45.430924 45.509161 45.582720 45.651508 45.715405 45.774331
45.828180 45.876884 45.920356 45.958539 45.991366 46.018792 46.040770 46.057270
46.068262 46.073733 46.073672 46.068081 46.056970 46.040354 46.018264 45.990729
45.957799 45.919519 45.875959 45.827174 45.773254 45.714268 45.650322 45.581498
45.507918 45.429674 45.346904 45.259709 45.168239 45.072606 44.972972 44.869452
44.762220 44.651398 44.537165 44.419648 44.299032 44.175446 44.049079 43.920059
43.788580 43.654766 43.518812 43.380839 43.241040 43.099532 42.956505 42.812071
42.666413 42.519636 42.371919 42.223358 42.074123 41.924301 41.774056 41.623463
41.472677 41.321763 41.170866 41.020040 40.869417 40.719044 40.569040 40.419440
40.270353 40.121803 39.973887 39.826618 39.680081 39.534280 39.389287 39.245098
39.101773 38.959298 38.817722 38.677023 38.537238 38.398339 38.260350 38.123238
37.987016 37.851645 37.717129 37.583421 37.450519 37.318370 37.186964 37.056244
36.926191 36.796746 36.667883 36.539542 36.411689 36.284262 36.157222 36.030507
35.904073 35.777858 35.651812 35.525878 35.400000
35.777778 35.922444 36.067171 36.212015 36.357039 36.502296 36.647851 36.793752
36.940062 37.086824 37.234103 37.381934 37.530379 37.679467 37.829258 37.979772
38.131066 38.283151 38.436079 38.589852 38.744519 38.900068 39.056542 39.213921
39.372239 39.531464 39.691624 39.852674 40.014633 40.177443 40.341114 40.505576
40.670829 40.836789 41.003444 41.170699 41.338530 41.506828 41.675559 41.844599
42.013903 42.183334 42.352835 42.522257 42.691530 42.860493 43.029066 43.197075
43.364429 43.530945 43.696521 43.860964 44.024163 44.185917 44.346106 44.504524
44.661042 44.815451 44.967615 45.117321 45.264432 45.408732 45.550081 45.688265
45.823143 45.954505 46.082211 46.206057 46.325903 46.441556 46.552881 46.659694
46.761866 46.859224 46.951651 47.038986 47.121121 47.197913 47.269264 47.335049
47.395182 47.449557 47.498104 47.540735 47.577394 47.608016 47.632561 47.650983
47.663260 47.669369 47.669302 47.663060 47.650652 47.632101 47.607431 47.576689
47.539916 47.497178 47.448533 47.394069 47.333857 47.268007 47.196602 47.119771
47.037612 46.950270 46.857854 46.760525 46.658403 46.551663 46.440432 46.324899
46.205197 46.081524 45.954018 45.822886 45.688270 45.550380 45.409359 45.265424
45.118715 44.969449 44.817765 44.663879 44.507926 44.350119 44.190586 44.029537
43.867093 43.703456 43.538739 43.373136 43.206750 43.039768 42.872281 42.704464
42.536399 42.368250 42.200087 42.032060 41.864229 41.696731 41.529614 41.363003
41.196931 41.031512 40.866768 40.702799 40.539614 40.377301 40.215859 40.055361
39.895796 39.737226 39.579628 39.423052 39.267468 39.112911 38.959345 38.806792
38.655209 38.504607 38.354936 38.206199 38.058338 37.911346 37.765162 37.619768
37.475101 37.331134 37.187802 37.045068 36.902867 36.761156 36.619866 36.478950
36.338340 36.197981 36.057808 35.917762 35.777778
36.155556 36.314842 36.474195 36.633680 36.793361 36.953307 37.113575 37.274236
37.435340 37.596959 37.759137 37.921943 38.085413 38.249617 38.414580 38.580369
38.747000 38.914535 39.082980 39.252393 39.422769 39.594158 39.766544 39.939970
40.114408 40.289892 40.466380 40.643899 40.822393 41.001878 41.182285 41.363618
41.545794 41.728806 41.912556 42.097026 42.282101 42.467752 42.653849 42.840348
43.027108 43.214070 43.401078 43.588062 43.774849 43.961358 44.147403 44.332890
44.517622 44.701490 44.884289 45.065898 45.246102 45.424770 45.601678 45.776688
45.949568 46.120174 46.288270 46.453704 46.616239 46.775720 46.931910 47.084651
47.233709 47.378927 47.520074 47.656997 47.789472 47.917349 48.040416 48.158528
48.271485 48.379152 48.481343 48.577932 48.668750 48.753683 48.832581 48.905344
48.971841 49.031986 49.085672 49.132829 49.173371 49.207244 49.234389 49.254768
49.268346 49.275104 49.275031 49.268127 49.254405 49.233885 49.206604 49.172599
49.131932 49.084659 49.030865 48.970623 48.904040 48.831205 48.752249 48.667273
48.576429 48.479833 48.377654 48.270021 48.157119 48.039086 47.916124 47.788378
47.656063 47.519330 47.378403 47.233439 47.084669 46.932252 46.776424 46.617343
46.455250 46.290300 46.122733 45.952701 45.780443 45.606104 45.429919 45.252026
45.072653 44.891930 44.710076 44.527211 44.343546 44.159188 43.974337 43.789089
43.603632 43.418048 43.232512 43.047094 42.861956 42.677152 42.492831 42.309036
42.125897 41.943447 41.761801 41.580978 41.401078 41.222109 41.044157 40.867215
40.691357 40.516565 40.342899 40.170329 39.998902 39.828581 39.659397 39.491305
39.324324 39.158401 38.993543 38.829692 38.666843 38.504931 38.343940 38.183804
38.024495 37.865943 37.708113 37.550930 37.394353 37.238305 37.082737 36.927573
36.772756 36.618212 36.463878 36.309682 36.155556
36.533333 36.707282 36.881304 37.055470 37.229856 37.404526 37.579560 37.755016
37.930973 38.107482 38.284622 38.462438 38.641004 38.820357 39.000570 39.181669
39.363722 39.546744 39.730801 39.915893 40.102081 40.289353 40.477762 40.667283
40.857960 41.049756 41.242703 41.436749 41.631919 41.828143 42.025436 42.223712
42.422972 42.623117 42.824133 43.025905 43.228407 43.431506 43.635162 43.839227
44.043645 44.248253 44.452980 44.657648 44.862172 45.066358 45.270108 45.473212
45.675560 45.876929 46.077196 46.276126 46.473585 46.669328 46.863209 47.054977
47.244476 47.431449 47.615732 47.797065 47.975280 48.150114 48.321396 48.488864
48.652346 48.811587 48.966412 49.116573 49.261902 49.402159 49.537180 49.666739
49.790680 49.908792 50.020928 50.126894 50.226558 50.319743 50.406330 50.486167
50.559148 50.625144 50.684068 50.735813 50.780312 50.817483 50.847277 50.869641
50.884545 50.891962 50.891883 50.884308 50.869247 50.846730 50.816787 50.779474
50.734840 50.682968 50.623928 50.557827 50.484753 50.404838 50.318188 50.224957
50.125266 50.019291 49.907169 49.789094 49.665214 49.535742 49.400836 49.260723
49.115568 48.965614 48.811030 48.652066 48.488898 48.321783 48.150896 47.976500
47.798767 47.617962 47.434255 47.247909 47.059089 46.868054 46.674961 46.480064
46.283511 46.085547 45.886311 45.686037 45.484852 45.282980 45.080533 44.877723
44.674649 44.471509 44.268386 44.065465 43.862814 43.660602 43.458882 43.257808
43.057419 42.857851 42.659130 42.461375 42.264598 42.068903 41.874288 41.680841
41.488547 41.297478 41.107610 40.918998 40.731606 40.545475 40.360561 40.176889
39.994407 39.813126 39.632987 39.453988 39.276063 39.099199 38.923323 38.748413
38.574391 38.401224 38.228831 38.057169 37.886157 37.715743 37.545843 37.376399
37.207327 37.038563 36.870025 36.701641 36.533333
36.911111 37.099767 37.288501 37.477396 37.666527 37.855976 38.045814 38.236124
38.426970 38.618435 38.810574 39.003471 39.197169 39.391752 39.587252 39.783747
39.981262 40.179868 40.379576 40.580453 40.782497 40.985768 41.190248 41.395990
41.602960 41.811202 42.020668 42.231388 42.443300 42.656422 42.870674 43.086062
43.302488 43.519946 43.738319 43.957587 44.177615 44.398367 44.619692 44.841537
45.063733 45.286213 45.508790 45.731380 45.953780 46.175891 46.397493 46.618472
46.838593 47.057728 47.275629 47.492152 47.707039 47.920133 48.131167 48.339973
48.546275 48.749895 48.950554 49.148067 49.342151 49.532615 49.719177 49.901645
50.079738 50.253265 50.421950 50.585604 50.743962 50.896839 51.043981 51.185213
51.320294 51.449058 51.571284 51.686817 51.795455 51.897060 51.991452 52.078507
52.158070 52.230037 52.294277 52.350706 52.399221 52.439758 52.472243 52.496633
52.512884 52.520973 52.520888 52.512628 52.496209 52.471654 52.439009 52.398319
52.349658 52.293093 52.228727 52.156647 52.076985 51.989845 51.895387 51.793732
51.685065 51.569524 51.447314 51.318590 51.183576 51.042439 50.895421 50.742700
50.584532 50.421101 50.252678 50.079452 49.901700 49.719615 49.533480 49.343490
49.149929 48.952988 48.752954 48.550012 48.344446 48.136433 47.926254 47.714075
47.500170 47.284694 47.067909 46.849961 46.631100 46.411455 46.191265 45.970644
45.749816 45.528880 45.308043 45.087390 44.867109 44.647270 44.428045 44.209486
43.991749 43.774869 43.558984 43.344115 43.130381 42.917788 42.706440 42.496326
42.287533 42.080040 41.873913 41.669120 41.465712 41.263645 41.062955 40.863587
40.665562 40.468816 40.273357 40.079113 39.886077 39.694172 39.503378 39.313614
39.124846 38.936990 38.750003 38.563796 38.378317 38.193475 38.009210 37.825431
37.642070 37.459037 37.276257 37.093642 36.911111
37.288889 37.492298 37.695795 37.899463 38.103392 38.307662 38.512363 38.717567
38.923368 39.129827 39.337038 39.545054 39.753966 39.963816 40.174692 40.386625
40.599698 40.813930 41.029398 41.246106 41.464124 41.683443 41.904123 42.126139
42.349543 42.574293 42.800428 43.027890 43.256707 43.486802 43.718189 43.950773
44.184554 44.419418 44.655350 44.892215 45.129984 45.368502 45.607722 45.847472
46.087685 46.328172 46.568850 46.809508 47.050047 47.290239 47.529968 47.768988
48.007166 48.244243 48.480068 48.714370 48.946983 49.177622 49.406111 49.632154
49.855564 50.076037 50.293377 50.507276 50.717532 50.923834 51.125976 51.323649
51.516645 51.704660 51.887487 52.064831 52.236488 52.402174 52.561692 52.714773
52.861231 53.000813 53.133345 53.258595 53.376404 53.486563 53.588928 53.683318
53.769608 53.847642 53.917316 53.978506 54.031127 54.075085 54.110321 54.136770
54.154398 54.163171 54.163079 54.154123 54.136316 54.109690 54.074283 54.030161
53.977384 53.916049 53.846240 53.768085 53.681690 53.587210 53.484773 53.374562
53.256723 53.131465 52.998950 52.859412 52.713027 52.560048 52.400664 52.235147
52.063695 51.886593 51.704048 51.516356 51.323728 51.126467 50.924786 50.718995
50.509301 50.296019 50.079351 49.859610 49.636992 49.411803 49.184234 48.954582
48.723025 48.489852 48.255227 48.019429 47.782607 47.545025 47.306816 47.068230
46.829383 46.590507 46.351702 46.113183 45.875032 45.637444 45.400485 45.164330
44.929028 44.694735 44.461483 44.229409 43.998528 43.768958 43.540697 43.313846
43.088388 42.864404 42.641865 42.420834 42.201268 41.983214 41.766617 41.551506
41.337819 41.125566 40.914677 40.705150 40.496903 40.289921 40.084118 39.879465
39.675870 39.473292 39.271635 39.070849 38.870836 38.671533 38.472842 38.274693
38.076988 37.879647 37.682575 37.485687 37.288889
37.666667 37.884880 38.103186 38.321682 38.540454 38.759604 38.979210 39.199375
39.420171 39.641698 39.864021 40.087238 40.311402 40.536610 40.762903 40.990373
41.219049 41.449016 41.680289 41.912947 42.146990 42.382487 42.619423 42.857857
43.097755 43.339167 43.582040 43.826412 44.072210 44.319459 44.568066 44.818041
45.069272 45.321750 45.575345 45.830032 46.085656 46.342177 46.599420 46.857325
47.115696 47.374453 47.633383 47.892386 48.151228 48.409790 48.667820 48.925181
49.181602 49.436931 49.690878 49.943275 50.193821 50.442329 50.688487 50.932096
51.172833 51.410489 51.644734 51.875350 52.102004 52.324471 52.542418 52.755618
52.963739 53.166555 53.363742 53.555075 53.740240 53.919020 54.091114 54.256312
54.414334 54.564981 54.707991 54.843182 54.970316 55.089227 55.199704 55.301600
55.394732 55.478976 55.554180 55.620241 55.677041 55.724501 55.762536 55.791093
55.810122 55.819596 55.819498 55.809830 55.790610 55.761864 55.723648 55.676013
55.619048 55.552831 55.477485 55.393112 55.299867 55.197876 55.087324 54.968358
54.841192 54.705994 54.563003 54.412404 54.254461 54.089372 53.917423 53.738825
53.553879 53.362806 53.165922 52.963453 52.755725 52.542968 52.325515 52.103594
51.877543 51.647588 51.414064 51.177191 50.937302 50.694609 50.449437 50.201985
49.952572 49.701383 49.448723 49.194764 48.939797 48.683975 48.427574 48.170731
47.913704 47.656610 47.399688 47.143038 46.886878 46.631289 46.376470 46.122481
45.869501 45.617571 45.366849 45.117360 44.869239 44.622493 44.377238 44.133466
43.891269 43.650626 43.411610 43.174183 42.938402 42.704215 42.471660 42.240673
42.011277 41.783396 41.557035 41.332112 41.108616 40.886457 40.665608 40.445974
40.227516 40.010132 39.793773 39.578333 39.363750 39.149918 38.936765 38.724185
38.512096 38.300394 38.088989 37.877778 37.666667
38.044444 38.277512 38.510683 38.744053 38.977730 39.211803 39.446382 39.681549
39.917414 40.154050 40.391566 40.630025 40.869532 41.110140 41.351949 41.595000
41.839387 42.085136 42.332336 42.580994 42.831194 43.082925 43.336261 43.591173
43.847724 44.105867 44.365649 44.627006 44.889972 45.154459 45.420487 45.687947
45.956842 46.227042 46.498529 46.771154 47.044880 47.319534 47.595060 47.871262
48.148065 48.425250 48.702721 48.980238 49.257684 49.534799 49.811446 50.087343
50.362335 50.636122 50.908528 51.179239 51.448062 51.714666 51.978844 52.240254
52.498674 52.753754 53.005260 53.252837 53.496244 53.735121 53.969224 54.198193
54.421782 54.639639 54.851516 55.057070 55.256061 55.448157 55.633124 55.810651
55.980514 56.142421 56.296165 56.441475 56.578162 56.705985 56.824772 56.934312