# vtk DataFile Version 3.0
Steady-state temperature (Jacobi)
ASCII
DATASET STRUCTURED_POINTS
DIMENSIONS 181 181 1
ORIGIN 0.0 0.0 0.0
SPACING 0.05 0.05 1.0
POINT_DATA 32761
SCALARS Temperature float 1
LOOKUP_TABLE default
32.000000 32.000000 32.000000 32.000000 32.000000 32.000000 32.000000 32.000000
32.000000 32.000000 32.000000 32.000000 32.000000 32.000000 32.000000 32.000000
32.000000 32.000000 32.000000 32.000000 32.000000 32.000000 32.000000 32.000000
32.000000 32.000000 32.000000 32.000000 32.000000 32.000000 32.000000 32.000000
32.000000 32.000000 32.000000 32.000000 32.000000 32.000000 32.000000 32.000000
32.000000 32.000000 32.000000 32.000000 32.000000 32.000000 32.000000 32.000000
32.000000 32.000000 32.000000 32.000000 32.000000 32.000000 32.000000 32.000000
32.000000 32.000000 32.000000 32.000000 32.000000 32.000000 32.000000 32.000000
32.000000 32.000000 32.000000 32.000000 32.000000 32.000000 32.000000 32.000000
32.000000 32.000000 32.000000 32.000000 32.000000 32.000000 32.000000 32.000000
32.000000 32.000000 32.000000 32.000000 32.000000 32.000000 32.000000 32.000000
32.000000 32.000000 32.000000 32.000000 32.000000 32.000000 32.000000 32.000000
32.000000 32.000000 32.000000 32.000000 32.000000 32.000000 32.000000 32.000000
32.000000 32.000000 32.000000 32.000000 32.000000 32.000000 32.000000 32.000000
32.000000 32.000000 32.000000 32.000000 32.000000 32.000000 32.000000 32.000000
32.000000 32.000000 32.000000 32.000000 32.000000 32.000000 32.000000 32.000000
32.000000 32.000000 32.000000 32.000000 32.000000 32.000000 32.000000 32.000000
32.000000 32.000000 32.000000 32.000000 32.000000 32.000000 32.000000 32.000000
32.000000 32.000000 32.000000 32.000000 32.000000 32.000000 32.000000 32.000000
32.000000 32.000000 32.000000 32.000000 32.000000 32.000000 32.000000 32.000000
32.000000 32.000000 32.000000 32.000000 32.000000 32.000000 32.000000 32.000000
32.000000 32.000000 32.000000 32.000000 32.000000 32.000000 32.000000 32.000000
32.000000 32.000000 32.000000 32.000000 32.000000
32.377778 32.387654 32.397540 32.407444 32.417376 32.427345 32.437360 32.447431
32.457563 32.467770 32.478055 32.488431 32.498900 32.509476 32.520160 32.530964
32.541889 32.552947 32.564136 32.575470 32.586945 32.598572 32.610348 32.622282
32.634371 32.646623 32.659031 32.671604 32.684334 32.697228 32.710276 32.723485
32.736842 32.750354 32.764006 32.777803 32.791729 32.805788 32.819961 32.834252
32.848641 32.863129 32.877695 32.892339 32.907037 32.921789 32.936571 32.951379
32.966189 32.980995 32.995773 33.010516 33.025197 33.039810 33.054327 33.068739
33.083020 33.097159 33.111129 33.124919 33.138502 33.151867 33.164986 33.177849
33.190427 33.202709 33.214669 33.226296 33.237563 33.248460 33.258961 33.269057
33.278724 33.287953 33.296720 33.305018 33.312826 33.320136 33.326931 33.333202
33.338935 33.344124 33.348755 33.352824 33.356320 33.359240 33.361575 33.363325
33.364484 33.365050 33.365023 33.364403 33.363191 33.361388 33.358998 33.356026
33.352477 33.348356 33.343673 33.338433 33.332649 33.326328 33.319484 33.312126
33.304270 33.295926 33.287113 33.277841 33.268131 33.257993 33.247452 33.236517
33.225213 33.213551 33.201559 33.189246 33.176639 33.163751 33.150608 33.137222
33.123621 33.109816 33.095834 33.081686 33.067401 33.052987 33.038473 33.023867
33.009196 32.994468 32.979710 32.964928 32.950148 32.935375 32.920633 32.905927
32.891280 32.876695 32.862193 32.847776 32.833464 32.819257 32.805175 32.791215
32.777395 32.763713 32.750183 32.736802 32.723584 32.710523 32.697631 32.684903
32.672348 32.659959 32.647745 32.635697 32.623822 32.612111 32.600569 32.589187
32.577967 32.566899 32.555986 32.545215 32.534588 32.524094 32.513730 32.503486
32.493358 32.483336 32.473415 32.463584 32.453838 32.444164 32.434557 32.425006
32.415504 32.406038 32.396602 32.387185 32.377778
32.755556 32.775315 32.795094 32.814909 32.834781 32.854725 32.874764 32.894910
32.915186 32.935603 32.956185 32.976940 32.997892 33.019047 33.040428 33.062039
33.083904 33.106022 33.128418 33.151088 33.174054 33.197312 33.220882 33.244755
33.268951 33.293458 33.318295 33.343446 33.368927 33.394719 33.420838 33.447261
33.473999 33.501028 33.528357 33.555957 33.583836 33.611960 33.640335 33.668924
33.697731 33.726715 33.755876 33.785172 33.814600 33.844113 33.873707 33.903334
33.932985 33.962609 33.992197 34.021694 34.051090 34.080327 34.109393 34.138231
34.166824 34.195115 34.223087 34.250681 34.277879 34.304622 34.330891 34.356629
34.381815 34.406393 34.430342 34.453608 34.476170 34.497975 34.519005 34.539208
34.558566 34.577033 34.594590 34.611195 34.626831 34.641460 34.655066 34.667616
34.679097 34.689481 34.698755 34.706897 34.713899 34.719742 34.724419 34.727921
34.730241 34.731375 34.731321 34.730080 34.727652 34.724044 34.719260 34.713311
34.706204 34.697957 34.688579 34.678093 34.666511 34.653861 34.640156 34.625431
34.609700 34.593002 34.575355 34.556799 34.537356 34.517069 34.495960 34.474078
34.451443 34.428108 34.404093 34.379454 34.354211 34.328421 34.302105 34.275320
34.248086 34.220462 34.192467 34.164158 34.135555 34.106715 34.077654 34.048429
34.019055 33.989588 33.960040 33.930465 33.900873 33.871316 33.841802 33.812380
33.783056 33.753876 33.724843 33.696001 33.667349 33.638928 33.610736 33.582810
33.555144 33.527773 33.500688 33.473921 33.447460 33.421333 33.395527 33.370066
33.344935 33.320153 33.295704 33.271605 33.247836 33.224411 33.201309 33.178541
33.156084 33.133946 33.112103 33.090560 33.069291 33.048299 33.027558 33.007066
32.986799 32.966751 32.946898 32.927231 32.907728 32.888377 32.869154 32.850047
32.831034 32.812098 32.793218 32.774377 32.755556
33.133333 33.162991 33.192675 33.222417 33.252241 33.282178 33.312250 33.342492
33.372920 33.403570 33.434457 33.465615 33.497056 33.528816 33.560902 33.593348
33.626159 33.659369 33.692976 33.727015 33.761480 33.796403 33.831773 33.867621
33.903933 33.940735 33.978008 34.015778 34.054019 34.092755 34.131954 34.171637
34.211767 34.252362 34.293380 34.334834 34.376678 34.418922 34.461512 34.504456
34.547695 34.591233 34.635007 34.679015 34.723190 34.767526 34.811953 34.856461
34.900974 34.945481 34.989900 35.034217 35.078350 35.122278 35.165917 35.209246
35.252177 35.294685 35.336685 35.378147 35.418986 35.459171 35.498616 35.537291
35.575111 35.612043 35.648007 35.682968 35.716849 35.749617 35.781198 35.811559
35.840630 35.868382 35.894748 35.919702 35.943184 35.965168 35.985602 36.004464
36.021706 36.037311 36.051239 36.063476 36.073991 36.082772 36.089798 36.095060
36.098545 36.100249 36.100169 36.098303 36.094657 36.089235 36.082050 36.073109
36.062437 36.050043 36.035959 36.020201 36.002806 35.983795 35.963214 35.941085
35.917460 35.892367 35.865865 35.837981 35.808781 35.778296 35.746596 35.713713
35.679722 35.644656 35.608595 35.571570 35.533665 35.494913 35.455397 35.415149
35.374257 35.332749 35.290714 35.248180 35.205234 35.161902 35.118269 35.074361
35.030261 34.985989 34.941629 34.897196 34.852772 34.808368 34.764062 34.719863
34.675844 34.632009 34.588428 34.545102 34.502095 34.459404 34.417089 34.375142
34.333618 34.292506 34.251856 34.211652 34.171940 34.132700 34.093971 34.055732
34.018017 33.980800 33.944109 33.907918 33.872249 33.837072 33.802405 33.768216
33.734517 33.701275 33.668497 33.636150 33.604234 33.572716 33.541591 33.510826
33.480412 33.450315 33.420522 33.390999 33.361731 33.332682 33.303834 33.275154
33.246619 33.218196 33.189861 33.161582 33.133333
33.511111 33.550686 33.590300 33.629986 33.669787 33.709733 33.749868 33.790219
33.830830 33.871726 33.912951 33.954524 33.996492 34.038868 34.081698 34.124990
34.168791 34.213102 34.257968 34.303386 34.349399 34.395997 34.443222 34.491056
34.539539 34.588648 34.638418 34.688820 34.739885 34.791577 34.843925 34.896883
34.950477 35.004655 35.059437 35.114764 35.170652 35.227034 35.283923 35.341243
35.399001 35.457117 35.515591 35.574338 35.633351 35.692539 35.751892 35.811312
35.870784 35.930204 35.989553 36.048724 36.107691 36.166346 36.224657 36.282513
36.339881 36.396645 36.452769 36.508139 36.562714 36.616380 36.669095 36.720747
36.771291 36.820617 36.868682 36.915377 36.960660 37.004427 37.046636 37.087189
37.126045 37.163113 37.198355 37.231688 37.263074 37.292440 37.319754 37.344948
37.367996 37.388841 37.407459 37.423805 37.437861 37.449591 37.458982 37.466012
37.470671 37.472948 37.472840 37.470349 37.465475 37.458232 37.448628 37.436686
37.422420 37.405865 37.387040 37.365990 37.342740 37.317346 37.289836 37.260277
37.228700 37.195183 37.159759 37.122515 37.083487 37.042769 37.000401 36.956480
36.911051 36.864217 36.816022 36.766573 36.715915 36.664160 36.611351 36.557602
36.502955 36.447525 36.391353 36.334555 36.277168 36.219306 36.161004 36.102376
36.043452 35.984342 35.925072 35.865750 35.806397 35.747117 35.687925 35.628921
35.570114 35.511600 35.453382 35.395549 35.338100 35.281118 35.224596 35.168609
35.113147 35.058278 35.003985 34.950331 34.897293 34.844927 34.793206 34.742178
34.691812 34.642149 34.593155 34.544863 34.497235 34.450297 34.404010 34.358391
34.313399 34.269046 34.225286 34.182126 34.139519 34.097465 34.055917 34.014869
33.974272 33.934114 33.894348 33.854957 33.815892 33.777133 33.738632 33.700363
33.662281 33.624355 33.586542 33.548808 33.511111
33.888889 33.938411 33.987978 34.037641 34.087442 34.137432 34.187650 34.238149
34.288962 34.340146 34.391727 34.443762 34.496272 34.549314 34.602903 34.657096
34.711900 34.767372 34.823510 34.880371 34.937946 34.996288 35.055381 35.115275
35.175945 35.237439 35.299722 35.362838 35.426745 35.491482 35.556996 35.623323
35.690401 35.758260 35.826829 35.896132 35.966090 36.036719 36.107933 36.179742
36.252049 36.324860 36.398068 36.471673 36.545561 36.619724 36.694043 36.768500
36.842972 36.917435 36.991758 37.065912 37.139762 37.213274 37.286307 37.358822
37.430676 37.501826 37.572128 37.641533 37.709898 37.777171 37.843209 37.907960
37.971281 38.033119 38.093337 38.151879 38.208614 38.263486 38.316371 38.367216
38.415902 38.462379 38.506538 38.548331 38.587660 38.624482 38.658707 38.690298
38.719179 38.745317 38.768648 38.789145 38.806759 38.821468 38.833237 38.842051
38.847890 38.850746 38.850612 38.847488 38.841382 38.832300 38.820265 38.805291
38.787415 38.766657 38.743068 38.716674 38.687541 38.655700 38.621229 38.584166
38.544601 38.502575 38.458190 38.411493 38.362593 38.311542 38.258457 38.203394
38.146477 38.087761 38.027380 37.965389 37.901926 37.837045 37.770890 37.703513
37.635058 37.565578 37.495218 37.424025 37.352145 37.279624 37.206603 37.133125
37.059329 36.985250 36.911026 36.836686 36.762363 36.688080 36.613963 36.540030
36.466401 36.393086 36.320198 36.247741 36.175822 36.104435 36.033680 35.963545
35.894121 35.825390 35.757434 35.690229 35.623848 35.558260 35.493530 35.429622
35.366592 35.304398 35.243087 35.182614 35.123015 35.064241 35.006322 34.949204
34.892907 34.837376 34.782623 34.728590 34.675281 34.622636 34.570652 34.519269
34.468475 34.418210 34.368456 34.319153 34.270277 34.221768 34.173595 34.125703
34.078053 34.030592 33.983278 33.936059 33.888889
34.266667 34.326168 34.385728 34.445398 34.505240 34.565301 34.625648 34.686320
34.747385 34.808879 34.870871 34.933388 34.996500 35.060227 35.124641 35.189752
35.255631 35.322280 35.389768 35.458088 35.527308 35.597411 35.668461 35.740432
35.813384 35.887281 35.962178 36.038029 36.114885 36.192689 36.271484 36.351204
36.431886 36.513452 36.595935 36.679243 36.763402 36.848311 36.933988 37.020322
37.107321 37.194866 37.282957 37.371463 37.460379 37.549564 37.639004 37.728551
37.818181 37.907741 37.997200 38.086396 38.175291 38.263720 38.351638 38.438875
38.525380 38.610981 38.695622 38.779129 38.861443 38.942390 39.021907 39.099823
39.176073 39.250489 39.323004 39.393457 39.461781 39.527821 39.591512 39.652706
39.711342 39.767282 39.820467 39.870771 39.918141 39.962462 40.003685 40.041712
40.076498 40.107961 40.136063 40.160737 40.181953 40.199660 40.213836 40.224448
40.231481 40.234920 40.234759 40.230999 40.223644 40.212713 40.198218 40.180194
40.158663 40.133677 40.105264 40.073495 40.038405 40.000080 39.958562 39.913952
39.866299 39.815717 39.762260 39.706056 39.647164 39.585722 39.521792 39.455523
39.386980 39.316320 39.243608 39.169009 39.092589 39.014518 38.934860 38.853789
38.771367 38.687770 38.603059 38.517407 38.430872 38.343627 38.255724 38.167335
38.078504 37.989399 37.900060 37.810648 37.721195 37.631858 37.542661 37.453752
37.365147 37.276989 37.189283 37.102164 37.015629 36.929803 36.844676 36.760362
36.676843 36.594222 36.512475 36.431695 36.351848 36.273017 36.195163 36.118357
36.042552 35.967810 35.894079 35.821408 35.749742 35.679118 35.609476 35.540844
35.473158 35.406436 35.340611 35.275691 35.211607 35.148356 35.085869 35.024136
34.963083 34.902694 34.842896 34.783663 34.724923 34.666643 34.608753 34.551212
34.493954 34.436931 34.380078 34.323344 34.266667
34.644444 34.713969 34.783558 34.853282 34.923199 34.993384 35.063889 35.134792
35.206137 35.278004 35.350431 35.423499 35.497237 35.571725 35.646985 35.723096
35.800069 35.877985 35.956842 36.036718 36.117602 36.199569 36.282596 36.366754
36.452009 36.538427 36.625961 36.714672 36.804502 36.895504 36.987608 37.080860
37.175177 37.270598 37.367027 37.464495 37.562893 37.662244 37.762425 37.863452
37.965189 38.067643 38.170666 38.274254 38.378252 38.482644 38.587264 38.692089
38.796943 38.901792 39.006454 39.110886 39.214899 39.318442 39.421320 39.523475
39.624708 39.724955 39.824015 39.921817 40.018160 40.112971 40.206047 40.297314
40.386571 40.473743 40.558635 40.641168 40.721158 40.798525 40.873094 40.944789
41.013442 41.078983 41.141257 41.200197 41.255664 41.307595 41.355866 41.400423
41.441159 41.478026 41.510935 41.539847 41.564692 41.585441 41.602043 41.614478
41.622716 41.626746 41.626558 41.622154 41.613542 41.600734 41.583761 41.562643
41.537430 41.508153 41.474884 41.437659 41.396571 41.351665 41.303051 41.250783
41.194986 41.135722 41.073132 41.007283 40.938331 40.866347 40.791500 40.713865
40.633621 40.550845 40.465725 40.378339 40.288884 40.197436 40.104196 40.009240
39.912772 39.814865 39.715723 39.615417 39.514149 39.411985 39.309125 39.205628
39.101692 38.997366 38.892844 38.788167 38.683522 38.578941 38.474604 38.370534
38.266900 38.163717 38.061145 37.959188 37.857994 37.757559 37.658021 37.559364
37.461714 37.365048 37.269479 37.174974 37.081634 36.989419 36.898416 36.808576
36.719975 36.632558 36.546387 36.461400 36.377647 36.295060 36.213679 36.133429
36.054338 35.976327 35.899414 35.823517 35.748640 35.674700 35.601693 35.529532
35.458202 35.387618 35.317754 35.248526 35.179898 35.111789 35.044155 34.976914
34.910016 34.843384 34.776959 34.710667 34.644444
35.022222 35.101815 35.181486 35.261305 35.341355 35.421701 35.502428 35.583595
35.665289 35.747561 35.830500 35.914147 35.998593 36.083868 36.170065 36.257200
36.345367 36.434572 36.524905 36.616359 36.709023 36.802876 36.898004 36.994373
37.092063 37.191027 37.291339 37.392938 37.495891 37.600123 37.705693 37.812512
37.920630 38.029944 38.140495 38.252164 38.364985 38.478823 38.593701 38.709471
38.826146 38.943564 39.061726 39.180458 39.299750 39.419416 39.539435 39.659610
39.779909 39.900125 40.020216 40.139967 40.259325 40.378068 40.496135 40.613298
40.729488 40.844473 40.958178 41.070370 41.180966 41.289735 41.396590 41.501301
41.603779 41.703799 41.801271 41.895976 41.987825 42.076608 42.162236 42.244514
42.323354 42.398573 42.470090 42.537736 42.601437 42.661041 42.716481 42.767624
42.814410 42.856727 42.894525 42.927712 42.956249 42.980067 42.999136 43.013411
43.022874 43.027501 43.027287 43.022232 43.012343 42.997643 42.978150 42.953910
42.924954 42.891351 42.853141 42.810416 42.763227 42.711687 42.655855 42.595866
42.531788 42.463772 42.391894 42.316324 42.237143 42.154536 42.068589 41.979501
41.887362 41.792380 41.694647 41.594383 41.491679 41.386761 41.279720 41.170786
41.060046 40.947736 40.833936 40.718884 40.602654 40.485481 40.367435 40.248746
40.129474 40.009846 39.889914 39.769896 39.649835 39.529941 39.410245 39.290948
39.172072 39.053805 38.936158 38.819308 38.703255 38.588162 38.474019 38.360975
38.249010 38.138259 38.028690 37.920426 37.813424 37.707793 37.603480 37.500580
37.399032 37.298915 37.200161 37.102835 37.006862 36.912293 36.819046 36.727158
36.636544 36.547227 36.459116 36.372222 36.286452 36.201804 36.118182 36.035573
35.953879 35.873077 35.793070 35.713821 35.635236 35.557268 35.479825 35.402851
35.326256 35.249977 35.173927 35.098036 35.022222
35.400000 35.489717 35.579519 35.669495 35.759722 35.850297 35.941287 36.032793
36.124873 36.217631 36.311115 36.405432 36.500617 36.596777 36.693939 36.792207
36.891594 36.992205 37.094039 37.197198 37.301666 37.407543 37.514798 37.623524
37.733677 37.845343 37.958462 38.073114 38.189223 38.306860 38.425932 38.546503
38.668462 38.791864 38.916582 39.042658 39.169951 39.298491 39.428121 39.558858
39.690531 39.823146 39.956513 40.090628 40.225288 40.360475 40.495972 40.631749
40.767579 40.903419 41.039030 41.174359 41.309159 41.443364 41.576720 41.709154
41.840405 41.970391 42.098849 42.225688 42.350646 42.473627 42.594369 42.712772
42.828578 42.941686 43.051844 43.158948 43.262759 43.363173 43.459960 43.553020
43.642139 43.727221 43.808067 43.884586 43.956600 44.024025 44.086702 44.144557
44.197452 44.245325 44.288059 44.325605 44.357870 44.384816 44.406378 44.422529
44.433229 44.438465 44.438225 44.432509 44.421329 44.404701 44.382663 44.355243
44.322507 44.284494 44.241297 44.192966 44.139618 44.081316 44.018200 43.950342
43.877905 43.800970 43.719719 43.634243 43.544741 43.451310 43.354166 43.253409
43.149272 43.041856 42.931406 42.818024 42.701964 42.583328 42.462376 42.339210
42.214091 42.087118 41.958555 41.828494 41.697199 41.564755 41.431422 41.297277
41.162576 41.027385 40.891953 40.756336 40.620775 40.485313 40.350181 40.215410
40.081219 39.947627 39.814840 39.682865 39.551892 39.421917 39.293115 39.165469
39.039141 38.914098 38.790488 38.668267 38.547566 38.428331 38.310677 38.194538
38.080013 37.967028 37.855665 37.745843 37.637626 37.530925 37.425791 37.322128
37.219969 37.119216 37.019887 36.921877 36.825192 36.729725 36.635466 36.542307
36.450226 36.359113 36.268934 36.179580 36.091005 36.003102 35.915815 35.829039
35.742708 35.656720 35.571001 35.485456 35.400000
35.777778 35.877678 35.977675 36.077861 36.178338 36.279188 36.380521 36.482408
36.584962 36.688245 36.792371 36.897391 37.003422 37.110499 37.218742 37.328171
37.438905 37.550951 37.664423 37.779314 37.895735 38.013662 38.133202 38.254314
38.377099 38.501498 38.627605 38.755344 38.884800 39.015880 39.148658 39.283022
39.419037 39.556573 39.695683 39.836219 39.978220 40.121520 40.266148 40.411918
40.558845 40.706728 40.855567 41.005144 41.155445 41.306237 41.457493 41.608966
41.760613 41.912176 42.063600 42.214613 42.365148 42.514927 42.663870 42.811690
42.958298 43.103403 43.246907 43.388517 43.528126 43.665442 43.800354 43.932573
44.061982 44.188299 44.311406 44.431029 44.547052 44.659210 44.767391 44.871344
44.970959 45.066006 45.156378 45.241864 45.322367 45.397697 45.467765 45.532406
45.591541 45.645030 45.692808 45.734760 45.770834 45.800944 45.825052 45.843099
45.855064 45.860917 45.860651 45.854265 45.841769 45.823191 45.798555 45.767920
45.731324 45.688854 45.640563 45.586566 45.526928 45.461793 45.391236 45.315427
45.234453 45.148507 45.057685 44.962201 44.862160 44.757796 44.649220 44.536681
44.420295 44.300328 44.176895 44.050275 43.920584 43.788108 43.652963 43.515441
43.375653 43.233896 43.090276 42.945087 42.798430 42.650599 42.501683 42.351972
42.201545 42.050686 41.899463 41.748149 41.596800 41.445679 41.294828 41.144499
40.994719 40.845725 40.697531 40.550360 40.404211 40.259290 40.115583 39.973278
39.832348 39.692964 39.555085 39.418863 39.284247 39.151370 39.020168 38.890757
38.763061 38.637179 38.513024 38.390678 38.270045 38.151189 38.034006 37.918543
37.804691 37.692479 37.581792 37.472643 37.364915 37.258604 37.153590 37.049855
36.947277 36.845824 36.745375 36.645884 36.547230 36.449356 36.352143 36.255524
36.159382 36.063640 35.968187 35.872934 35.777778
36.155556 36.265706 36.375960 36.486431 36.597211 36.708422 36.820145 36.932506
37.045578 37.159487 37.274295 37.390131 37.507043 37.625160 37.744517 37.865242
37.987353 38.110978 38.236118 38.362898 38.491301 38.621448 38.753304 38.886983
39.022433 39.159758 39.298889 39.439921 39.582764 39.727504 39.874031 40.022420
40.172539 40.324454 40.478010 40.633260 40.790031 40.948359 41.108053 41.269135
41.431392 41.594833 41.759226 41.924564 42.090598 42.257305 42.424420 42.591903
42.759476 42.927083 43.094433 43.261456 43.427850 43.593531 43.758187 43.921723
44.083821 44.244374 44.403060 44.559764 44.714163 44.866133 45.015354 45.161698
45.304848 45.444674 45.580867 45.713295 45.841661 45.965835 46.085535 46.200633
46.310863 46.416106 46.516115 46.610777 46.699869 46.783289 46.860837 46.932422
46.997873 47.057111 47.109993 47.156455 47.196385 47.229733 47.256419 47.276409
47.289655 47.296139 47.295847 47.288778 47.274949 47.254376 47.227111 47.193186
47.152683 47.105652 47.052206 46.992410 46.926409 46.854279 46.776196 46.692250
46.602641 46.507473 46.406971 46.301247 46.190550 46.075000 45.954866 45.830274
45.701510 45.568703 45.432154 45.291994 45.148535 45.001908 44.852432 44.700235
44.545641 44.388775 44.229961 44.069317 43.907166 43.743618 43.578992 43.413385
43.247113 43.080259 42.913130 42.745796 42.578553 42.411457 42.244790 42.078592
41.913133 41.748436 41.584755 41.422097 41.260698 41.100551 40.941871 40.784639
40.629049 40.475066 40.322866 40.172399 40.023822 39.877070 39.732280 39.589376
39.448474 39.309485 39.172508 39.037442 38.904365 38.773169 38.643912 38.516478
38.390907 38.267076 38.145007 38.024571 37.905774 37.788483 37.672687 37.558250
37.445146 37.333239 37.222486 37.112753 37.003983 36.896043 36.788863 36.682315
36.576317 36.470743 36.365501 36.260473 36.155556
36.533333 36.653804 36.774393 36.895210 37.016381 37.138006 37.260217 37.383102
37.506797 37.631377 37.756983 37.883676 38.011596 38.140790 38.271401 38.403455
38.537096 38.672333 38.809306 38.948008 39.088571 39.230970 39.375333 39.521614
39.669932 39.820221 39.972593 40.126959 40.283420 40.441867 40.602388 40.764852
40.929336 41.095685 41.263961 41.433989 41.605816 41.779244 41.954303 42.130776
42.308675 42.487762 42.668033 42.849229 43.031330 43.214057 43.397373 43.580982
43.764830 43.948605 44.132238 44.315404 44.498015 44.679737 44.860469 45.039866
45.217816 45.393966 45.568195 45.740146 45.909689 46.076469 46.240346 46.400970
46.558198 46.711685 46.861286 47.006668 47.147686 47.284020 47.415527 47.541906
47.663019 47.778586 47.888475 47.992430 48.090330 48.181944 48.267162 48.345783
48.417711 48.482773 48.540891 48.591924 48.635809 48.672439 48.701769 48.723728
48.738288 48.745414 48.745095 48.737334 48.722138 48.699546 48.669585 48.632327
48.587818 48.536166 48.477435 48.411765 48.339237 48.260025 48.174223 48.082036
47.983573 47.879068 47.768641 47.652551 47.530930 47.404059 47.272078 47.135290
46.993838 46.848044 46.698054 46.544204 46.386639 46.225707 46.061552 45.894526
45.724771 45.552643 45.378276 45.202027 45.024020 44.844610 44.663911 44.482272
44.299792 44.116813 43.933422 43.749946 43.566457 43.383272 43.200444 43.018275
42.836801 42.656307 42.476812 42.298582 42.121619 41.946169 41.772217 41.599987
41.429449 41.260806 41.094011 40.929244 40.766444 40.605770 40.447145 40.290706
40.136363 39.984233 39.834211 39.686392 39.540664 39.397099 39.255574 39.116142
38.978671 38.843195 38.709576 38.577826 38.447805 38.319506 38.192785 38.067617
37.943855 37.821460 37.700285 37.580272 37.461278 37.343229 37.225985 37.109460
36.993516 36.878056 36.762947 36.648081 36.533333
36.911111 37.041980 37.172974 37.304227 37.435851 37.567990 37.700744 37.834261
37.968630 38.104001 38.240451 38.378132 38.517102 38.657518 38.799419 38.942961
39.088167 39.235188 39.384028 39.534836 39.687594 39.842445 39.999351 40.158447
40.319673 40.483154 40.648809 40.816752 40.986878 41.159290 41.333857 41.510671
41.689576 41.870649 42.053711 42.238821 42.425778 42.614623 42.805131 42.997327
43.190960 43.386038 43.582289 43.779700 43.977979 44.177094 44.376733 44.576845
44.777100 44.977429 45.177486 45.377184 45.576163 45.774321 45.971285 46.166939
46.360903 46.553046 46.742984 46.930575 47.115432 47.297405 47.476109 47.651388
47.822864 47.990374 48.153552 48.312234 48.466064 48.614885 48.758355 48.896320
49.028463 49.154634 49.274539 49.388040 49.494870 49.594902 49.687899 49.773749
49.852246 49.923294 49.986722 50.042452 50.090349 50.130352 50.162366 50.186349
50.202242 50.210027 50.209683 50.201211 50.184631 50.159963 50.127268 50.086586
50.038015 49.981616 49.917524 49.845820 49.766675 49.680185 49.586558 49.485905
49.378468 49.264371 49.143885 49.017148 48.884457 48.745960 48.601977 48.452666
48.298366 48.139238 47.975641 47.807737 47.635898 47.460286 47.281281 47.099042
46.913956 46.726174 46.536087 46.343838 46.149813 45.954145 45.757218 45.559149
45.360315 45.160819 44.961025 44.761021 44.561157 44.361504 44.162396 43.963885
43.766288 43.569637 43.374229 43.180080 42.987464 42.796376 42.607071 42.419524
42.233967 42.050358 41.868905 41.689547 41.512470 41.337597 41.165089 40.994854
40.827029 40.661509 40.498406 40.337604 40.179191 40.023040 39.869216 39.717582
39.568183 39.420874 39.275676 39.132439 38.991164 38.851697 38.714019 38.577972
38.443519 38.310502 38.178866 38.048451 37.919189 37.790922 37.663564 37.536963
37.411018 37.285582 37.160544 37.035761 36.911111
37.288889 37.430237 37.571725 37.713483 37.855661 37.998375 38.141783 38.285989
38.431154 38.577367 38.724795 38.873509 39.023678 39.175356 39.328711 39.483779
39.640726 39.799568 39.960467 40.123417 40.288577 40.455917 40.625588 40.797538
40.971909 41.148625 41.327817 41.509384 41.693445 41.879874 42.068775 42.259996
42.453628 42.649491 42.847658 43.047925 43.250348 43.454695 43.661002 43.869015
44.078749 44.289923 44.502533 44.716276 44.931126 45.146757 45.363122 45.579876
45.796951 46.013982 46.230884 46.447273 46.663046 46.877807 47.091433 47.303519
47.513928 47.722244 47.928319 48.131733 48.332326 48.529680 48.723625 48.913747
49.099871 49.281591 49.458729 49.630892 49.797903 49.959384 50.115162 50.264880
50.408370 50.545300 50.675512 50.798702 50.914722 51.023300 51.124303 51.217491
51.302750 51.379876 51.448771 51.509271 51.561298 51.604727 51.639504 51.665543
51.682810 51.691265 51.690895 51.681702 51.663697 51.636923 51.601415 51.557257
51.504505 51.443287 51.373679 51.295849 51.209892 51.116017 51.014336 50.905093
50.788419 50.664591 50.533754 50.396216 50.252135 50.101847 49.945518 49.783509
49.615994 49.443352 49.265762 49.083620 48.897105 48.706626 48.512358 48.314719
48.113879 47.910261 47.704025 47.495595 47.285122 47.073022 46.859436 46.644772
46.429156 46.212985 45.996367 45.779687 45.563034 45.346776 45.130983 44.916005
44.701889 44.488968 44.277266 44.067094 43.858457 43.651640 43.446629 43.243684
43.042770 42.844124 42.647690 42.453679 42.262018 42.072892 41.886210 41.702131
41.520550 41.341599 41.165158 40.991335 40.819997 40.651225 40.484878 40.321012
40.159475 40.000301 39.843331 39.688575 39.535868 39.385200 39.236401 39.089440
38.944146 38.800468 38.658234 38.517375 38.377721 38.239186 38.101603 37.964870
37.828824 37.693350 37.558291 37.423521 37.288889
37.666667 37.818582 37.970644 38.123008 38.275809 38.429211 38.583336 38.738353
38.894370 39.051562 39.210017 39.369916 39.531328 39.694434 39.859284 40.026058
40.194786 40.365644 40.538639 40.713945 40.891543 41.071601 41.254076 41.439127
41.626686 41.816900 42.009675 42.205147 42.403196 42.603940 42.807233 43.013179
43.221602 43.432590 43.645938 43.861714 44.079687 44.299905 44.522108 44.746323
44.972265 45.199936 45.429025 45.659515 45.891067 46.123641 46.356878 46.590713
46.824764 47.058947 47.292860 47.526398 47.759143 47.990968 48.221444 48.450426
48.677473 48.902426 49.124838 49.344536 49.561069 49.774255 49.983646 50.189051
50.390027 50.586382 50.777683 50.963734 51.144120 51.318647 51.486919 51.648748
51.803762 51.951782 52.092464 52.225640 52.350998 52.468385 52.577524 52.678280
52.770411 52.853803 52.928256 52.993674 53.049901 53.096864 53.134449 53.162609
53.181274 53.190420 53.190026 53.180090 53.160638 53.131692 53.093325 53.045583
52.988583 52.922396 52.847183 52.763037 52.670161 52.568671 52.458809 52.340709
52.214653 52.080793 51.939445 51.790774 51.635130 51.472690 51.303830 51.128738
50.947813 50.761250 50.569467 50.372661 50.171267 49.965479 49.755744 49.542252
49.325456 49.105540 48.882958 48.657883 48.430768 48.201771 47.971340 47.739619
47.507044 47.273741 47.040132 46.806326 46.572729 46.339426 46.106805 45.874930
45.644167 45.414558 45.186445 44.959848 44.735085 44.512152 44.291342 44.072627
43.856274 43.642236 43.430750 43.221749 43.015442 42.811743 42.610834 42.412611
42.217226 42.024560 41.834740 41.647629 41.463328 41.281688 41.102782 40.926452
40.752745 40.581492 40.412717 40.246244 40.082072 39.920021 39.760066 39.602024
39.445850 39.291358 39.138484 38.987042 38.836949 38.688020 38.540157 38.393179
38.246970 38.101357 37.956209 37.811360 37.666667
38.044444 38.207016 38.369751 38.532799 38.696334 38.860494 39.025458 39.191350
39.358355 39.526580 39.696215 39.867347 40.040169 40.214748 40.391275 40.569797
40.750505 40.933419 41.118727 41.306427 41.496698 41.689514 41.885046 42.083239
42.284256 42.488014 42.694663 42.904091 43.116434 43.331552 43.549565 43.770301
43.993863 44.220050 44.448944 44.680314 44.914222 45.150408 45.388909 45.629436
45.872004 46.116295 46.362299 46.609670 46.858376 47.108044 47.358615 47.609694
47.861197 48.112708 48.364118 48.614992 48.865201 49.114290 49.362111 49.608197
49.852381 50.094186 50.333430 50.569631 50.802594 51.031836 51.257153 51.478064
51.694360 51.905571 52.111483 52.311638 52.505826 52.693607 52.874775 53.048913
53.215823 53.375117 53.526608 53.669940 53.804940 53.931288 54.048829 54.157282