# vtk DataFile Version 3.0
Steady-state temperature (Jacobi)
ASCII
DATASET STRUCTURED_POINTS
DIMENSIONS 181 181 1
ORIGIN 0.0 0.0 0.0
SPACING 0.05 0.05 1.0
POINT_DATA 32761
SCALARS Temperature float 1
LOOKUP_TABLE default
32.000000 32.000000 32.000000 32.000000 32.000000 32.000000 32.000000 32.000000
32.000000 32.000000 32.000000 32.000000 32.000000 32.000000 32.000000 32.000000
32.000000 32.000000 32.000000 32.000000 32.000000 32.000000 32.000000 32.000000
32.000000 32.000000 32.000000 32.000000 32.000000 32.000000 32.000000 32.000000
32.000000 32.000000 32.000000 32.000000 32.000000 32.000000 32.000000 32.000000
32.000000 32.000000 32.000000 32.000000 32.000000 32.000000 32.000000 32.000000
32.000000 32.000000 32.000000 32.000000 32.000000 32.000000 32.000000 32.000000
32.000000 32.000000 32.000000 32.000000 32.000000 32.000000 32.000000 32.000000
32.000000 32.000000 32.000000 32.000000 32.000000 32.000000 32.000000 32.000000
32.000000 32.000000 32.000000 32.000000 32.000000 32.000000 32.000000 32.000000
32.000000 32.000000 32.000000 32.000000 32.000000 32.000000 32.000000 32.000000
32.000000 32.000000 32.000000 32.000000 32.000000 32.000000 32.000000 32.000000
32.000000 32.000000 32.000000 32.000000 32.000000 32.000000 32.000000 32.000000
32.000000 32.000000 32.000000 32.000000 32.000000 32.000000 32.000000 32.000000
32.000000 32.000000 32.000000 32.000000 32.000000 32.000000 32.000000 32.000000
32.000000 32.000000 32.000000 32.000000 32.000000 32.000000 32.000000 32.000000
32.000000 32.000000 32.000000 32.000000 32.000000 32.000000 32.000000 32.000000
32.000000 32.000000 32.000000 32.000000 32.000000 32.000000 32.000000 32.000000
32.000000 32.000000 32.000000 32.000000 32.000000 32.000000 32.000000 32.000000
32.000000 32.000000 32.000000 32.000000 32.000000 32.000000 32.000000 32.000000
32.000000 32.000000 32.000000 32.000000 32.000000 32.000000 32.000000 32.000000
32.000000 32.000000 32.000000 32.000000 32.000000 32.000000 32.000000 32.000000
32.000000 32.000000 32.000000 32.000000 32.000000
32.377778 32.390510 32.403248 32.416001 32.428775 32.441578 32.454414 32.467293
32.480219 32.493201 32.506242 32.519351 32.532532 32.545791 32.559132 32.572562
32.586083 32.599702 32.613420 32.627243 32.641170 32.655208 32.669356 32.683617
32.697991 32.712480 32.727081 32.741798 32.756624 32.771563 32.786608 32.801760
32.817011 32.832362 32.847802 32.863333 32.878940 32.894625 32.910373 32.926182
32.942037 32.957936 32.973861 32.989808 33.005760 33.021711 33.037642 33.053547
33.069405 33.085208 33.100936 33.116580 33.132118 33.147540 33.162823 33.177957
33.192918 33.207696 33.222268 33.236620 33.250730 33.264585 33.278162 33.291448
33.304421 33.317067 33.329365 33.341301 33.352854 33.364012 33.374753 33.385067
33.394933 33.404341 33.413273 33.421718 33.429659 33.437088 33.443990 33.450356
33.456174 33.461437 33.466134 33.470260 33.473805 33.476767 33.479138 33.480916
33.482098 33.482681 33.482665 33.482049 33.480836 33.479026 33.476623 33.473630
33.470053 33.465898 33.461171 33.455880 33.450034 33.443642 33.436715 33.429262
33.421297 33.412831 33.403880 33.394454 33.384571 33.374243 33.363489 33.352322
33.340761 33.328820 33.316520 33.303874 33.290904 33.277624 33.264056 33.250213
33.236119 33.221787 33.207239 33.192489 33.177559 33.162461 33.147218 33.131842
33.116354 33.100765 33.085097 33.069359 33.053572 33.037744 33.021895 33.006033
32.990176 32.974329 32.958512 32.942728 32.926995 32.911314 32.895702 32.880161
32.864705 32.849333 32.834060 32.818883 32.803816 32.788855 32.774010 32.759279
32.744671 32.730180 32.715815 32.701570 32.687451 32.673452 32.659577 32.645821
32.632185 32.618663 32.605256 32.591957 32.578766 32.565675 32.552683 32.539782
32.526970 32.514238 32.501584 32.488998 32.476477 32.464012 32.451598 32.439228
32.426894 32.414589 32.402306 32.390038 32.377778
32.755556 32.781024 32.806507 32.832018 32.857572 32.883181 32.908861 32.934623
32.960483 32.986450 33.012541 33.038763 33.065132 33.091655 33.118346 33.145210
33.172263 33.199505 33.226951 33.254601 33.282468 33.310548 33.338856 33.367384
33.396144 33.425128 33.454345 33.483784 33.513452 33.543337 33.573443 33.603754
33.634274 33.664983 33.695883 33.726951 33.758186 33.789564 33.821080 33.852708
33.884440 33.916247 33.948120 33.980025 34.011952 34.043866 34.075752 34.107574
34.139315 34.170934 34.202416 34.233717 34.264818 34.295675 34.326267 34.356549
34.386498 34.416069 34.445237 34.473956 34.502202 34.529927 34.557106 34.583693
34.609663 34.634970 34.659588 34.683474 34.706602 34.728931 34.750435 34.771075
34.790827 34.809655 34.827536 34.844436 34.860335 34.875202 34.889019 34.901760
34.913408 34.923940 34.933344 34.941601 34.948700 34.954626 34.959374 34.962933
34.965298 34.966465 34.966433 34.965201 34.962771 34.959149 34.954338 34.948349
34.941188 34.932872 34.923409 34.912820 34.901117 34.888323 34.874455 34.859540
34.843595 34.826652 34.808732 34.789868 34.770084 34.749415 34.727887 34.705538
34.682395 34.658498 34.633875 34.608568 34.582605 34.556030 34.528869 34.501169
34.472956 34.444277 34.415155 34.385640 34.355754 34.325544 34.295032 34.264266
34.233264 34.202074 34.170712 34.139223 34.107624 34.075956 34.044235 34.012499
33.980761 33.949058 33.917401 33.885823 33.854334 33.822964 33.791719 33.760629
33.729695 33.698945 33.668379 33.638020 33.607866 33.577938 33.548232 33.518765
33.489531 33.460545 33.431799 33.403305 33.375052 33.347050 33.319288 33.291771
33.264487 33.237439 33.210614 33.184012 33.157620 33.131435 33.105441 33.079636
33.054003 33.028536 33.003219 32.978044 32.952994 32.928061 32.903227 32.878481
32.853807 32.829193 32.804622 32.780082 32.755556
33.133333 33.171550 33.209787 33.248068 33.286411 33.324839 33.363371 33.402030
33.440832 33.479800 33.518948 33.558300 33.597866 33.637669 33.677719 33.718037
33.758628 33.799514 33.840697 33.882197 33.924012 33.966160 34.008637 34.051458
34.094615 34.138122 34.181965 34.226157 34.270678 34.315541 34.360721 34.406226
34.452028 34.498132 34.544506 34.591151 34.638030 34.685142 34.732445 34.779933
34.827562 34.875321 34.923162 34.971072 35.018997 35.066920 35.114786 35.162573
35.210221 35.257707 35.304968 35.351978 35.398669 35.445013 35.490942 35.536424
35.581390 35.625805 35.669599 35.712737 35.755147 35.796792 35.837603 35.877540
35.916536 35.954551 35.991518 36.027400 36.062130 36.095673 36.127965 36.158972
36.188635 36.216919 36.243771 36.269161 36.293037 36.315372 36.336123 36.355264
36.372757 36.388581 36.402703 36.415108 36.425769 36.434673 36.441804 36.447150
36.450702 36.452456 36.452408 36.450557 36.446908 36.441466 36.434241 36.425243
36.414490 36.401995 36.387785 36.371876 36.354300 36.335080 36.314253 36.291845
36.267900 36.242447 36.215536 36.187197 36.157486 36.126437 36.094108 36.060535
36.025782 35.989885 35.952910 35.914895 35.875909 35.835989 35.795207 35.753599
35.711238 35.668159 35.624436 35.580104 35.535233 35.489859 35.444051 35.397842
35.351301 35.304456 35.257376 35.210086 35.162650 35.115093 35.067476 35.019818
34.972177 34.924571 34.877054 34.829638 34.782374 34.735272 34.688377 34.641696
34.595270 34.549102 34.503228 34.457649 34.412396 34.367466 34.322886 34.278650
34.234781 34.191268 34.148132 34.105359 34.062964 34.020931 33.979273 33.937970
33.897030 33.856433 33.816183 33.776257 33.736656 33.697357 33.658355 33.619627
33.581166 33.542947 33.504961 33.467181 33.429596 33.392180 33.354917 33.317784
33.280762 33.243827 33.206959 33.170135 33.133333
33.511111 33.562091 33.613099 33.664163 33.715314 33.766576 33.817980 33.869548
33.921314 33.973294 34.025523 34.078016 34.130805 34.183901 34.237337 34.291120
34.345281 34.399823 34.454776 34.510138 34.565937 34.622166 34.678850 34.735978
34.793574 34.851618 34.910132 34.969093 35.028516 35.088374 35.148679 35.209396
35.270535 35.332055 35.393960 35.456205 35.518788 35.581658 35.644811 35.708187
35.771778 35.835519 35.899397 35.963343 36.027336 36.091303 36.155221 36.219009
36.282640 36.346031 36.409148 36.471904 36.534264 36.596136 36.657480 36.718205
36.778265 36.837568 36.896066 36.953665 37.010317 37.065926 37.120443 37.173775
37.225869 37.276635 37.326022 37.373941 37.420341 37.465137 37.508281 37.549692
37.589323 37.627099 37.662976 37.696886 37.728788 37.758620 37.786346 37.811912
37.835285 37.856421 37.875291 37.891860 37.906105 37.917999 37.927527 37.934668
37.939415 37.941758 37.941693 37.939221 37.934346 37.927077 37.917423 37.905405
37.891037 37.874348 37.855360 37.834111 37.810628 37.784956 37.757129 37.727200
37.695207 37.661213 37.625256 37.587408 37.547712 37.506245 37.463052 37.418216
37.371785 37.323846 37.274449 37.223684 37.171602 37.118295 37.063815 37.008256
36.951669 36.894149 36.835745 36.776552 36.716619 36.656039 36.594856 36.533164
36.471005 36.408468 36.345591 36.282463 36.219116 36.155634 36.092047 36.028434
35.964820 35.901279 35.837833 35.774550 35.711446 35.648584 35.585976 35.523680
35.461701 35.400092 35.338854 35.278034 35.217628 35.157676 35.098172 35.039150
34.980596 34.922542 34.864970 34.807905 34.751325 34.695250 34.639656 34.584556
34.529923 34.475766 34.422057 34.368797 34.315956 34.263532 34.211493 34.159832
34.108517 34.057536 34.006855 33.956460 33.906317 33.856407 33.806697 33.757164
33.707775 33.658506 33.609325 33.560203 33.511111
33.888889 33.952653 34.016452 34.080324 34.144300 34.208420 34.272713 34.337219
34.401964 34.466988 34.532313 34.597981 34.664007 34.730432 34.797269 34.864557
34.932303 35.000544 35.069282 35.138552 35.208351 35.278710 35.349620 35.421109
35.493161 35.565802 35.639006 35.712798 35.787144 35.862064 35.937517 36.013518
36.090019 36.167030 36.244495 36.322417 36.400736 36.479448 36.558484 36.637834
36.717424 36.797238 36.877193 36.957267 37.037372 37.117480 37.197495 37.277385
37.357047 37.436443 37.515467 37.594075 37.672155 37.749660 37.826475 37.902546
37.977758 38.052053 38.125313 38.197478 38.268429 38.338105 38.406387 38.473211
38.538462 38.602076 38.663938 38.723985 38.782109 38.838246 38.892293 38.944189
38.993837 39.041180 39.086127 39.128626 39.168594 39.205983 39.240719 39.272762
39.302046 39.328536 39.352179 39.372946 39.390794 39.405702 39.417639 39.426591
39.432538 39.435475 39.435394 39.432296 39.426188 39.417077 39.404983 39.389919
39.371918 39.351001 39.327212 39.300580 39.271158 39.238984 39.204121 39.166611
39.126530 39.083925 39.038880 38.991447 38.941718 38.889751 38.835643 38.779456
38.721295 38.661222 38.599347 38.535734 38.470499 38.403705 38.335470 38.265857
38.194987 38.122920 38.049779 37.975622 37.900568 37.824677 37.748065 37.670786
37.592955 37.514622 37.435899 37.356830 37.277522 37.198016 37.118414 37.038749
36.959119 36.879551 36.800136 36.720895 36.641913 36.563206 36.484851 36.406856
36.329293 36.252165 36.175535 36.099399 36.023814 35.948771 35.874319 35.800444
35.727186 35.654527 35.582501 35.511084 35.440303 35.370130 35.300585 35.231636
35.163297 35.095533 35.028350 34.961711 34.895617 34.830029 34.764939 34.700309
34.636126 34.572349 34.508961 34.445920 34.383205 34.320773 34.258599 34.196641
34.134870 34.073244 34.011731 33.950291 33.888889
34.266667 34.343241 34.419858 34.496560 34.573393 34.650393 34.727608 34.805072
34.882833 34.960919 35.039381 35.118241 35.197548 35.277321 35.357607 35.438417
35.519799 35.601757 35.684337 35.767535 35.851394 35.935904 36.021104 36.106976
36.193555 36.280815 36.368785 36.457433 36.546783 36.636792 36.727480 36.818794
36.910749 37.003284 37.096404 37.190043 37.284197 37.378791 37.473816 37.569186
37.664885 37.760820 37.856966 37.953222 38.049557 38.145861 38.242097 38.338146
38.433965 38.529429 38.624489 38.719012 38.812944 38.906150 38.998566 39.090055
39.180549 39.269908 39.358061 39.444864 39.530244 39.614059 39.696232 39.776623
39.855153 39.931684 40.006140 40.078386 40.148345 40.215890 40.280945 40.343390
40.403153 40.460121 40.514228 40.565368 40.613482 40.658475 40.700293 40.738853
40.774108 40.805987 40.834451 40.859443 40.880931 40.898873 40.913245 40.924018
40.931179 40.934713 40.934616 40.930889 40.923536 40.912571 40.898011 40.879883
40.858212 40.833040 40.804401 40.772351 40.736932 40.698213 40.656244 40.611107
40.562857 40.511589 40.457364 40.400289 40.340429 40.277899 40.212771 40.145167
40.075162 40.002886 39.928415 39.851885 39.773373 39.693020 39.610903 39.527164
39.441880 39.355196 39.267185 39.177992 39.087688 38.996415 38.904242 38.811307
38.717675 38.623481 38.528782 38.433711 38.338318 38.242729 38.146989 38.051217
37.955451 37.859803 37.764304 37.669058 37.574088 37.479492 37.385283 37.291550
37.198302 37.105618 37.013499 36.922015 36.831160 36.740996 36.651510 36.562755
36.474711 36.387424 36.300867 36.215077 36.130023 36.045732 35.962170 35.879354
35.797247 35.715858 35.635145 35.555112 35.475712 35.396943 35.318755 35.241139
35.164044 35.087455 35.011319 34.935615 34.860291 34.785319 34.710649 34.636246
34.562061 34.488057 34.414185 34.340404 34.266667
34.644444 34.733860 34.823325 34.912892 35.002607 35.092525 35.182688 35.273151
35.363951 35.455146 35.546766 35.638869 35.731479 35.824653 35.918408 36.012801
36.107841 36.203581 36.300024 36.397220 36.495162 36.593899 36.693413 36.793749
36.894881 36.996847 37.099613 37.203211 37.307596 37.412794 37.518750 37.625484
37.732931 37.841101 37.949920 38.059391 38.169429 38.280029 38.391094 38.502612
38.614477 38.726667 38.839065 38.951642 39.064273 39.176917 39.289442 39.401800
39.513850 39.625535 39.736706 39.847302 39.957166 40.066228 40.174330 40.281394
40.387256 40.491837 40.594969 40.696567 40.796464 40.894572 40.990724 41.084830
41.176726 41.266321 41.353455 41.438038 41.519916 41.598999 41.675141 41.748257
41.818208 41.884914 41.948247 42.008133 42.064453 42.117142 42.166094 42.211250
42.252521 42.289855 42.323177 42.352446 42.377602 42.398614 42.415440 42.428057
42.436441 42.440581 42.440468 42.436103 42.427495 42.414655 42.397610 42.376381
42.351011 42.321534 42.288008 42.250476 42.209013 42.163672 42.114543 42.061687
42.005207 41.945174 41.881704 41.814872 41.744808 41.671593 41.595367 41.516214
41.434284 41.349666 41.262514 41.172921 41.081047 40.986984 40.890897 40.792878
40.693094 40.591635 40.488668 40.384281 40.278640 40.171829 40.064011 39.955264
39.845750 39.735540 39.624789 39.513562 39.402011 39.290189 39.178243 39.066219
38.954253 38.842385 38.730742 38.619356 38.508343 38.397726 38.287614 38.178019
38.069041 37.960682 37.853033 37.746088 37.639925 37.534534 37.429980 37.326245
37.223385 37.121375 37.020261 36.920010 36.820658 36.722167 36.624564 36.527806
36.431908 36.336824 36.242561 36.149068 36.056344 35.964333 35.873028 35.782371
35.692346 35.602893 35.513990 35.425577 35.337624 35.250070 35.162880 35.075995
34.989373 34.902956 34.816699 34.730545 34.644444
35.022222 35.124514 35.226865 35.329329 35.431969 35.534835 35.637990 35.741480
35.845370 35.949699 36.054533 36.159904 36.265877 36.372477 36.479769 36.587768
36.696537 36.806084 36.916468 37.027688 37.139798 37.252788 37.366709 37.481538
37.597321 37.714026 37.831691 37.950274 38.069806 38.190232 38.311576 38.433772
38.556837 38.680691 38.805341 38.930698 39.056759 39.183421 39.310675 39.438403
39.566587 39.695100 39.823911 39.952882 40.081974 40.211038 40.340024 40.468774
40.597229 40.725223 40.852687 40.979446 41.105424 41.230441 41.354411 41.477149
41.598565 41.718468 41.836763 41.953259 42.067855 42.180359 42.290667 42.398592
42.504027 42.606786 42.706765 42.803783 42.897736 42.988452 43.075830 43.159706
43.239984 43.316511 43.389197 43.457902 43.522543 43.582994 43.639180 43.690991
43.738362 43.781199 43.819448 43.853031 43.881907 43.906018 43.925332 43.939810
43.949435 43.954185 43.954057 43.949049 43.939169 43.924438 43.904873 43.880515
43.851395 43.817573 43.779092 43.736029 43.688439 43.636418 43.580030 43.519388
43.454566 43.385692 43.312849 43.236179 43.155773 43.071784 42.984310 42.893515
42.799502 42.702444 42.602445 42.499688 42.394278 42.286403 42.176169 42.063767
41.949301 41.832964 41.714858 41.595176 41.474014 41.351564 41.227918 41.103263
40.977685 40.851366 40.724383 40.596914 40.469027 40.340890 40.212565 40.084211
39.955879 39.827719 39.699772 39.572177 39.444967 39.318269 39.192105 39.066592
38.941741 38.817658 38.694343 38.571892 38.450294 38.329634 38.209892 38.091140
37.973352 37.856586 37.740808 37.626065 37.512317 37.399599 37.287864 37.177137
37.067364 36.958561 36.850669 36.743693 36.637571 36.532298 36.427809 36.324089
36.221072 36.118734 36.017008 35.915862 35.815228 35.715068 35.615313 35.515918
35.416817 35.317959 35.219279 35.120721 35.022222
35.400000 35.515210 35.630484 35.745891 35.861490 35.977353 36.093534 36.210105
36.327116 36.444639 36.562715 36.681419 36.800784 36.920882 37.041737 37.163421
37.285947 37.409386 37.533740 37.659075 37.785384 37.912727 38.041086 38.170515
38.300985 38.432543 38.565146 38.698837 38.833558 38.969342 39.106122 39.243920
39.382654 39.522338 39.662877 39.804275 39.946422 40.089312 40.232821 40.376932
40.521510 40.666525 40.811829 40.957381 41.103021 41.248697 41.394237 41.539578
41.684538 41.829043 41.972903 42.116033 42.258234 42.399414 42.539365 42.677989
42.815073 42.950510 43.084087 43.215689 43.345101 43.472208 43.596792 43.718736
43.837827 43.953945 44.066883 44.176523 44.282663 44.385188 44.483907 44.578707
44.669411 44.755911 44.838041 44.915704 44.988747 45.057082 45.120575 45.179146
45.232679 45.281106 45.324331 45.362299 45.394933 45.422192 45.444020 45.460390
45.471268 45.476640 45.476495 45.470835 45.459671 45.443016 45.420906 45.393370
45.360463 45.322227 45.278741 45.230059 45.176281 45.117474 45.053755 44.985205
44.911959 44.834106 44.751801 44.665140 44.574293 44.479365 44.380539 44.277925
44.171718 44.062033 43.949074 43.832958 43.713896 43.592008 43.467508 43.340516
43.211250 43.079826 42.946463 42.811274 42.674476 42.536177 42.396590 42.255817
42.114067 41.971431 41.828114 41.684198 41.539878 41.395227 41.250432 41.105554
40.960769 40.816130 40.671798 40.527816 40.384335 40.241383 40.099100 39.957504
39.816719 39.676754 39.537720 39.399612 39.262531 39.126461 38.991487 38.857585
38.724828 38.593181 38.462703 38.333353 38.205175 38.078122 37.952225 37.827428
37.703753 37.581138 37.459591 37.339046 37.219502 37.100886 36.983188 36.866333
36.750299 36.635010 36.520434 36.406496 36.293155 36.180333 36.067984 35.956031
35.844419 35.733075 35.621937 35.510934 35.400000
35.777778 35.905949 36.034195 36.162584 36.291196 36.420093 36.549357 36.679045
36.809239 36.939989 37.071378 37.203447 37.336279 37.469905 37.604407 37.739806
37.876182 38.013543 38.151966 38.291450 38.432063 38.573794 38.716707 38.860774
39.006054 39.152506 39.300181 39.449024 39.599077 39.750270 39.902636 40.056090
40.210655 40.366231 40.522829 40.680334 40.838747 40.997937 41.157891 41.318465
41.479634 41.641239 41.803242 41.965469 42.127870 42.290260 42.452573 42.614613
42.776304 42.937436 43.097923 43.257544 43.416202 43.573671 43.729841 43.884479
44.037469 44.188573 44.337667 44.484511 44.628975 44.770818 44.909908 45.046005
45.178976 45.308584 45.434697 45.557086 45.675618 45.790075 45.900328 46.006169
46.107477 46.204058 46.295797 46.382515 46.464108 46.540416 46.611343 46.676750
46.736554 46.790635 46.838926 46.881328 46.917787 46.948231 46.972618 46.990901
47.003055 47.009056 47.008896 47.002576 46.990104 46.971506 46.946806 46.916055
46.879292 46.836594 46.788014 46.733651 46.673575 46.607906 46.536728 46.460183
46.378365 46.291436 46.199503 46.102745 46.001277 45.895295 45.784923 45.670368
45.551762 45.429323 45.303187 45.173581 45.040643 44.904608 44.765612 44.623897
44.479595 44.332951 44.184093 44.033266 43.880594 43.726316 43.570552 43.413536
43.255378 43.096307 42.936422 42.775946 42.614966 42.453694 42.292207 42.130705
41.969254 41.808041 41.647119 41.486663 41.326712 41.167428 41.008836 40.851084
40.694186 40.538273 40.383347 40.229526 40.076797 39.925265 39.774905 39.625807
39.477937 39.331366 39.186054 39.042058 38.899326 38.757901 38.617726 38.478828
38.341142 38.204684 38.069383 37.935241 37.802182 37.670197 37.539205 37.409187
37.280059 37.151790 37.024296 36.897535 36.771422 36.645909 36.520907 36.396362
36.272188 36.148321 36.024678 35.901190 35.777778
36.155556 36.296739 36.438002 36.579429 36.721095 36.863087 37.005474 37.148344
37.291759 37.435809 37.580545 37.726060 37.872393 38.019635 38.167818 38.317029
38.467286 38.618675 38.771202 38.924947 39.079903 39.236144 39.393649 39.552487
39.712620 39.874109 40.036902 40.201050 40.366486 40.533251 40.701260 40.870544
41.041003 41.212654 41.385381 41.559189 41.733944 41.909639 42.086123 42.263375
42.441228 42.619646 42.798448 42.977584 43.156855 43.336199 43.515404 43.694391
43.872937 44.050950 44.228194 44.404566 44.579820 44.753839 44.926370 45.097288
45.266331 45.433366 45.598128 45.760475 45.920141 46.076981 46.230727 46.381231
46.528230 46.671575 46.811008 46.946381 47.077446 47.204057 47.325978 47.443069
47.555107 47.661960 47.763423 47.859371 47.949618 48.034052 48.112506 48.184882
48.251035 48.310882 48.364301 48.411225 48.451558 48.485248 48.512228 48.532462
48.545909 48.552551 48.552376 48.545383 48.531588 48.511008 48.483686 48.449657
48.408992 48.361743 48.308006 48.247851 48.181399 48.108736 48.030007 47.945312
47.854818 47.758640 47.656964 47.549916 47.437703 47.320458 47.198406 47.071688
46.940542 46.805115 46.665656 46.522315 46.375352 46.224917 46.071275 45.914576
45.755089 45.592960 45.428460 45.261729 45.093036 44.922515 44.750430 44.576908
44.402206 44.226439 44.049858 43.872565 43.694802 43.516660 43.338365 43.159998
42.981772 42.803753 42.626140 42.448986 42.272473 42.096641 41.921657 41.747544
41.574456 41.402400 41.231515 41.061793 40.893357 40.726187 40.560387 40.395928
40.232895 40.071248 39.911057 39.752271 39.594944 39.439015 39.284524 39.131401
38.979670 38.829256 38.680168 38.532323 38.385719 38.240267 38.095952 37.952682
37.810430 37.669101 37.528656 37.388999 37.250082 37.111809 36.974121 36.836923
36.700148 36.563703 36.427515 36.291492 36.155556
36.533333 36.687580 36.841918 36.996430 37.151213 37.306345 37.461922 37.618017
37.774728 37.932116 38.090283 38.249280 38.409206 38.570101 38.732064 38.895123
39.059371 39.224825 39.391574 39.559620 39.729046 39.899839 40.072076 40.245728
40.420865 40.597439 40.775511 40.955018 41.136010 41.318405 41.502242 41.687422
41.873970 42.061769 42.250832 42.441023 42.632340 42.824629 43.017872 43.211900
43.406677 43.602016 43.797869 43.994028 44.190431 44.386854 44.583218 44.779286
44.974964 45.169999 45.364285 45.557556 45.749692 45.940418 46.129601 46.316959
46.502347 46.685478 46.866198 47.044217 47.219374 47.391377 47.560063 47.725140
47.886444 48.043688 48.196707 48.345224 48.489074 48.627993 48.761820 48.890305
49.013295 49.130556 49.241944 49.347245 49.446327 49.538997 49.625137 49.704577
49.777214 49.842904 49.901562 49.953070 49.997360 50.034343 50.063971 50.086183
50.100951 50.108244 50.108053 50.100379 50.085232 50.062644 50.032643 49.995293
49.950641 49.898780 49.839777 49.773751 49.700789 49.621037 49.534598 49.441644
49.342294 49.236742 49.125122 49.007650 48.884469 48.755818 48.621848 48.482814
48.338875 48.190300 48.037253 47.880014 47.718749 47.553748 47.385176 47.213326
47.038365 46.860586 46.680150 46.497352 46.312345 46.125422 45.936725 45.746542
45.555007 45.362397 45.168834 44.974586 44.779762 44.584617 44.389245 44.193888
43.998626 43.803686 43.609131 43.415172 43.221857 43.029379 42.837772 42.647211
42.457713 42.269436 42.082382 41.896690 41.712348 41.529477 41.348052 41.168174
40.989805 40.813030 40.637798 40.464176 40.292103 40.121628 39.952681 39.785294
39.619389 39.454982 39.291987 39.130406 38.970146 38.811195 38.653456 38.496902
38.341433 38.187010 38.033531 37.880944 37.729147 37.578078 37.427633 37.277743
37.128305 36.979240 36.830449 36.681845 36.533333
36.911111 37.078480 37.245945 37.413607 37.581556 37.749897 37.918711 38.088107
38.258157 38.428969 38.600607 38.773180 38.946738 39.121389 39.297171 39.474190
39.652469 39.832110 40.013122 40.195601 40.379541 40.565030 40.752046 40.940669
41.130859 41.322686 41.516093 41.711139 41.907747 42.105966 42.305699 42.506979
42.709693 42.913859 43.119342 43.326147 43.534118 43.743244 43.953350 44.164408
44.376222 44.588749 44.801774 45.015236 45.228901 45.442692 45.656358 45.869804
46.082765 46.295128 46.506615 46.717097 46.926283 47.134032 47.340042 47.544158
47.746071 47.945617 48.142479 48.336486 48.527319 48.714799 48.898609 49.078567
49.254358 49.425799 49.592582 49.754527 49.911336 50.062832 50.208730 50.348861
50.482957 50.610858 50.732315 50.847179 50.955225 51.056318 51.150257 51.236921
51.316139 51.387807 51.451782 51.507979 51.556286 51.596638 51.628954 51.653190
51.669299 51.677259 51.677053 51.668682 51.652164 51.627520 51.594802 51.554054
51.505357 51.448778 51.384430 51.312400 51.232832 51.145830 51.051568 50.950169
50.841833 50.726699 50.604991 50.476862 50.342561 50.202250 50.056199 49.904578
49.747674 49.585666 49.418853 49.247418 49.071671 48.891796 48.708110 48.520796
48.330175 48.136428 47.939875 47.740689 47.539190 47.335544 47.130063 46.922902
46.714367 46.504601 46.293898 46.082388 45.870353 45.657905 45.445316 45.232680
45.020252 44.808110 44.596493 44.385460 44.175232 43.965853 43.757522 43.550267
43.344269 43.139537 42.936233 42.734351 42.534031 42.335252 42.138135 41.942644
41.748881 41.556796 41.366470 41.177842 40.990976 40.805797 40.622351 40.440555
40.260435 40.081901 39.904963 39.729521 39.555571 39.383006 39.211808 39.041866
38.873145 38.705534 38.538984 38.373381 38.208666 38.044723 37.881482 37.718829
37.556684 37.394935 37.233493 37.072251 36.911111
37.288889 37.469439 37.650097 37.830962 38.012149 38.193749 38.375878 38.558622
38.742097 38.926377 39.111582 39.297773 39.485068 39.673516 39.863232 40.054252
40.246688 40.440558 40.635971 40.832928 41.031530 41.231763 41.433718 41.637363
41.842780 42.049917 42.258845 42.469493 42.681919 42.896030 43.111872 43.329332
43.548438 43.769057 43.991202 44.214716 44.439598 44.665667 44.892904 45.121109
45.350243 45.580085 45.810578 46.041480 46.272715 46.504022 46.735308 46.966292
47.196862 47.426723 47.655745 47.883618 48.110195 48.335155 48.558335 48.779404
48.998189 49.214348 49.427699 49.637896 49.844748 50.047909 50.247181 50.442220
50.632827 50.818663 50.999529 51.175095 51.345165 51.509423 51.667677 51.819629
51.965097 52.103800 52.235567 52.360144 52.477371 52.587019 52.688946 52.782951
52.868910 52.946652 53.016074 53.077037 53.129459 53.173235 53.208305 53.234600
53.252083 53.260720 53.260499 53.251421 53.233498 53.206768 53.171265 53.127064
53.074223 53.012851 52.943028 52.864898 52.778562 52.684196 52.581922 52.471945
52.354408 52.229541 52.097505 51.958557 51.812870 51.660725 51.502307 51.337915
51.167744 50.992111 50.811214 50.625385 50.434825 50.239875 50.040737 49.837756
49.631133 49.421216 49.208198 48.992427 48.774089 48.553526 48.330914 48.106590
47.880714 47.653613 47.425435 47.196493 46.966919 46.737012 46.506886 46.276823
46.046920 45.817441 45.588464 45.360233 45.132808 44.906412 44.681087 44.457035
44.234279 44.013000 43.793202 43.575045 43.358517 43.143755 42.930731 42.719561
42.510200 42.302746 42.097137 41.893451 41.691615 41.491685 41.293577 41.097328
40.902843 40.710142 40.519121 40.329781 40.142012 39.955798 39.771023 39.587657
39.405578 39.224742 39.045024 38.866367 38.688645 38.511787 38.335670 38.160211
37.985287 37.810806 37.636649 37.462715 37.288889
37.666667 37.860463 38.054373 38.248514 38.442992 38.637931 38.833426 39.029605
39.226553 39.424398 39.623214 39.823129 40.024204 40.226566 40.430259 40.635409
40.842044 41.050284 41.260142 41.471729 41.685042 41.900183 42.117129 42.335975
42.556676 42.779316 43.003828 43.230285 43.458598 43.688824 43.920854 44.154729
44.390316 44.627639 44.866543 45.107034 45.348933 45.592227 45.836715 46.082363
46.328948 46.576415 46.824519 47.073185 47.322145 47.571306 47.820377 48.069247
48.317606 48.565321 48.812068 49.057696 49.301863 49.544403 49.784962 50.023358
50.259228 50.492377 50.722435 50.949196 51.172288 51.391498 51.606453 51.816935
52.022577 52.223159 52.418320 52.607844 52.791381 52.968720 53.139528 53.303599
53.460622 53.610403 53.752652 53.887189 54.013751 54.132175 54.242227 54.343762
54.436578 54.520552 54.595516 54.661369 54.717978 54.765267 54.803141 54.831547
54.850430 54.859762 54.859527 54.849723 54.830372 54.801499 54.763165 54.715422
54.658366 54.592076 54.516685 54.432296 54.339078 54.237157 54.126736 54.007961
53.881068 53.746221 53.603686 53.453644 53.296387 53.132109 52.961127 52.783646
52.600001 52.410406 52.215212 52.014638 51.809048 51.598662 51.383851 51.164834
50.941988 50.715527 50.485826 50.253094 50.017703 49.779850 49.539901 49.298040
49.054626 48.809825 48.563983 48.317252 48.069962 47.822246 47.574417 47.326591
47.079059 46.831917 46.585439 46.339698 46.094946 45.851237 45.608799 45.367667
45.128047 44.889952 44.653565 44.418881 44.186060 43.955077 43.726070 43.498997
43.273972 43.050939 42.829988 42.611049 42.394190 42.179328 41.966510 41.755640
41.546747 41.339724 41.134579 40.931199 40.729572 40.529579 40.331191 40.134281
39.938806 39.744636 39.551713 39.359902 39.169134 38.979273 38.790235 38.601889
38.414138 38.226853 38.039928 37.853237 37.666667
38.044444 38.251552 38.458785 38.666261 38.874111 39.082442 39.291391 39.501056
39.711573 39.923030 40.135564 40.349250 40.564223 40.780542 40.998343 41.217666
41.438643 41.661298 41.885756 42.112022 42.340213 42.570315 42.802435 43.036538
43.272720 43.510925 43.751234 43.993569 44.237997 44.484417 44.732878 44.983256
45.235583 45.489708 45.745648 46.003225 46.262434 46.523075 46.785122 47.048348
47.312706 47.577947 47.844000 48.110591 48.377629 48.644816 48.912041 49.178982
49.445507 49.711276 49.976136 50.239728 50.501881 50.762222 51.020560 51.276511
51.529870 51.780242 52.027410 52.270974 52.510707 52.746206 52.977238 53.203403
53.424463 53.640026 53.849854 54.053564 54.250923 54.441563 54.625256 54.801656
54.970544 55.131596 55.284609 55.429284 55.565434 55.692792 55.811190 55.920392