# vtk DataFile Version 3.0
Steady-state temperature (Jacobi)
ASCII
DATASET STRUCTURED_POINTS
DIMENSIONS 181 181 1
ORIGIN 0.0 0.0 0.0
SPACING 0.05 0.05 1.0
POINT_DATA 32761
SCALARS Temperature float 1
LOOKUP_TABLE default
32.000000 32.000000 32.000000 32.000000 32.000000 32.000000 32.000000 32.000000
32.000000 32.000000 32.000000 32.000000 32.000000 32.000000 32.000000 32.000000
32.000000 32.000000 32.000000 32.000000 32.000000 32.000000 32.000000 32.000000
32.000000 32.000000 32.000000 32.000000 32.000000 32.000000 32.000000 32.000000
32.000000 32.000000 32.000000 32.000000 32.000000 32.000000 32.000000 32.000000
32.000000 32.000000 32.000000 32.000000 32.000000 32.000000 32.000000 32.000000
32.000000 32.000000 32.000000 32.000000 32.000000 32.000000 32.000000 32.000000
32.000000 32.000000 32.000000 32.000000 32.000000 32.000000 32.000000 32.000000
32.000000 32.000000 32.000000 32.000000 32.000000 32.000000 32.000000 32.000000
32.000000 32.000000 32.000000 32.000000 32.000000 32.000000 32.000000 32.000000
32.000000 32.000000 32.000000 32.000000 32.000000 32.000000 32.000000 32.000000
32.000000 32.000000 32.000000 32.000000 32.000000 32.000000 32.000000 32.000000
32.000000 32.000000 32.000000 32.000000 32.000000 32.000000 32.000000 32.000000
32.000000 32.000000 32.000000 32.000000 32.000000 32.000000 32.000000 32.000000
32.000000 32.000000 32.000000 32.000000 32.000000 32.000000 32.000000 32.000000
32.000000 32.000000 32.000000 32.000000 32.000000 32.000000 32.000000 32.000000
32.000000 32.000000 32.000000 32.000000 32.000000 32.000000 32.000000 32.000000
32.000000 32.000000 32.000000 32.000000 32.000000 32.000000 32.000000 32.000000
32.000000 32.000000 32.000000 32.000000 32.000000 32.000000 32.000000 32.000000
32.000000 32.000000 32.000000 32.000000 32.000000 32.000000 32.000000 32.000000
32.000000 32.000000 32.000000 32.000000 32.000000 32.000000 32.000000 32.000000
32.000000 32.000000 32.000000 32.000000 32.000000 32.000000 32.000000 32.000000
32.000000 32.000000 32.000000 32.000000 32.000000
32.377778 32.396312 32.414849 32.433391 32.451940 32.470497 32.489066 32.507648
32.526246 32.544861 32.563495 32.582149 32.600825 32.619525 32.638248 32.656997
32.675772 32.694573 32.713400 32.732253 32.751131 32.770035 32.788962 32.807913
32.826883 32.845873 32.864878 32.883898 32.902927 32.921963 32.941001 32.960038
32.979067 32.998085 33.017084 33.036060 33.055004 33.073911 33.092772 33.111579
33.130324 33.148999 33.167592 33.186095 33.204498 33.222789 33.240957 33.258991
33.276878 33.294608 33.312166 33.329540 33.346716 33.363681 33.380421 33.396922
33.413170 33.429149 33.444846 33.460245 33.475332 33.490093 33.504511 33.518573
33.532263 33.545568 33.558472 33.570962 33.583022 33.594641 33.605804 33.616499
33.626712 33.636431 33.645646 33.654344 33.662514 33.670148 33.677234 33.683765
33.689732 33.695127 33.699944 33.704177 33.707819 33.710867 33.713316 33.715164
33.716407 33.717045 33.717077 33.716503 33.715323 33.713539 33.711155 33.708172
33.704595 33.700429 33.695680 33.690353 33.684456 33.677996 33.670981 33.663422
33.655327 33.646706 33.637571 33.627933 33.617803 33.607195 33.596120 33.584591
33.572624 33.560230 33.547424 33.534221 33.520636 33.506682 33.492375 33.477729
33.462760 33.447482 33.431910 33.416060 33.399946 33.383582 33.366983 33.350163
33.333136 33.315916 33.298517 33.280950 33.263231 33.245369 33.227378 33.209269
33.191054 33.172743 33.154347 33.135876 33.117338 33.098744 33.080102 33.061419
33.042704 33.023964 33.005205 32.986434 32.967656 32.948877 32.930103 32.911336
32.892582 32.873843 32.855124 32.836426 32.817754 32.799107 32.780489 32.761900
32.743342 32.724815 32.706320 32.687857 32.669425 32.651023 32.632653 32.614311
32.595998 32.577711 32.559450 32.541213 32.522997 32.504800 32.486621 32.468457
32.450305 32.432164 32.414031 32.395903 32.377778
32.755556 32.792626 32.829702 32.866786 32.903885 32.941002 32.978141 33.015307
33.052505 33.089736 33.127006 33.164316 33.201671 33.239073 33.276523 33.314023
33.351576 33.389180 33.426838 33.464547 33.502309 33.540120 33.577980 33.615884
33.653831 33.691815 33.729832 33.767876 33.805941 33.844019 33.882104 33.920184
33.958251 33.996294 34.034302 34.072261 34.110160 34.147982 34.185715 34.223340
34.260841 34.298200 34.335400 34.372417 34.409235 34.445829 34.482179 34.518260
34.554049 34.589522 34.624652 34.659414 34.693782 34.727727 34.761222 34.794239
34.826749 34.858723 34.890132 34.920946 34.951136 34.980672 35.009524 35.037663
35.065059 35.091683 35.117506 35.142499 35.166635 35.189886 35.212226 35.233627
35.254066 35.273517 35.291957 35.309364 35.325716 35.340992 35.355174 35.368244
35.380186 35.390984 35.400624 35.409094 35.416384 35.422483 35.427385 35.431082
35.433571 35.434848 35.434912 35.433762 35.431400 35.427831 35.423058 35.417089
35.409931 35.401593 35.392088 35.381427 35.369625 35.356697 35.342659 35.327531
35.311330 35.294078 35.275797 35.256508 35.236236 35.215006 35.192843 35.169773
35.145823 35.121021 35.095395 35.068975 35.041788 35.013865 34.985235 34.955928
34.925974 34.895403 34.864245 34.832529 34.800285 34.767542 34.734329 34.700675
34.666606 34.632152 34.597338 34.562192 34.526738 34.491002 34.455007 34.418777
34.382334 34.345701 34.308897 34.271943 34.234857 34.197659 34.160363 34.122989
34.085549 34.048060 34.010533 33.972983 33.935420 33.897855 33.860298 33.822758
33.785243 33.747761 33.710316 33.672916 33.635565 33.598268 33.561027 33.523846
33.486726 33.449669 33.412674 33.375744 33.338877 33.302072 33.265328 33.228643
33.192014 33.155439 33.118915 33.082438 33.046004 33.009609 32.973249 32.936920
32.900616 32.864333 32.828065 32.791808 32.755556
33.133333 33.188943 33.244560 33.300190 33.355842 33.411521 33.467234 33.522988
33.578788 33.634640 33.690549 33.746521 33.802559 33.858667 33.914849 33.971107
34.027442 34.083858 34.140352 34.196926 34.253578 34.310306 34.367105 34.423975
34.480907 34.537897 34.594936 34.652018 34.709130 34.766265 34.823408 34.880547
34.937667 34.994752 35.051785 35.108747 35.165617 35.222376 35.278999 35.335464
35.391742 35.447810 35.503636 35.559194 35.614450 35.669374 35.723930 35.778086
35.831803 35.885048 35.937778 35.989958 36.041545 36.092501 36.142780 36.192344
36.241147 36.289148 36.336299 36.382560 36.427883 36.472226 36.515542 36.557789
36.598920 36.638893 36.677664 36.715190 36.751429 36.786340 36.819882 36.852017
36.882706 36.911913 36.939601 36.965739 36.990292 37.013231 37.034527 37.054153
37.072084 37.088298 37.102774 37.115494 37.126440 37.135599 37.142959 37.148512
37.152249 37.154166 37.154261 37.152534 37.148988 37.143628 37.136461 37.127497
37.116748 37.104228 37.089954 37.073945 37.056223 37.036810 37.015731 36.993013
36.968687 36.942782 36.915331 36.886368 36.855930 36.824051 36.790773 36.756133
36.720174 36.682935 36.644460 36.604792 36.563975 36.522051 36.479069 36.435069
36.390100 36.344204 36.297428 36.249815 36.201411 36.152258 36.102402 36.051882
36.000744 35.949026 35.896771 35.844016 35.790801 35.737163 35.683139 35.628761
35.574067 35.519086 35.463852 35.408392 35.352737 35.296912 35.240945 35.184858
35.128676 35.072419 35.016109 34.959763 34.903400 34.847033 34.790681 34.734353
34.678066 34.621826 34.565646 34.509532 34.453494 34.397536 34.341664 34.285881
34.230192 34.174596 34.119097 34.063693 34.008386 33.953171 33.898049 33.843015
33.788067 33.733199 33.678408 33.623687 33.569033 33.514436 33.459893 33.405395
33.350936 33.296508 33.242103 33.187714 33.133333
33.511111 33.585264 33.659426 33.733607 33.807816 33.882062 33.956354 34.030700
34.105108 34.179586 34.254141 34.328780 34.403508 34.478330 34.553252 34.628275
34.703404 34.778638 34.853981 34.929429 35.004984 35.080639 35.156394 35.232241
35.308175 35.384186 35.460266 35.536401 35.612582 35.688791 35.765016 35.841235
35.917432 35.993582 36.069666 36.145656 36.221528 36.297250 36.372796 36.448129
36.523219 36.598027 36.672518 36.746649 36.820383 36.893672 36.966476 37.038745
37.110433 37.181489 37.251864 37.321503 37.390356 37.458365 37.525476 37.591631
37.656775 37.720846 37.783788 37.845540 37.906045 37.965239 38.023067 38.079466
38.134379 38.187745 38.239508 38.289610 38.337995 38.384606 38.429392 38.472299
38.513276 38.552273 38.589245 38.624145 38.656931 38.687561 38.715998 38.742205
38.766150 38.787801 38.807132 38.824117 38.838734 38.850965 38.860794 38.868208
38.873198 38.875758 38.875885 38.873579 38.868843 38.861685 38.852114 38.840143
38.825788 38.809069 38.790008 38.768631 38.744964 38.719041 38.690893 38.660559
38.628075 38.593484 38.556829 38.518156 38.477513 38.434949 38.390515 38.344265
38.296252 38.246534 38.195165 38.142205 38.087711 38.031743 37.974360 37.915623
37.855590 37.794325 37.731883 37.668329 37.603717 37.538110 37.471562 37.404135
37.335880 37.266857 37.197116 37.126712 37.055694 36.984115 36.912021 36.839460
36.766475 36.693113 36.619411 36.545414 36.471155 36.396675 36.322004 36.247178
36.172224 36.097175 36.022053 35.946888 35.871699 35.796511 35.721340 35.646208
35.571126 35.496114 35.421179 35.346338 35.271596 35.196964 35.122446 35.048051
34.973779 34.899636 34.825621 34.751735 34.677977 34.604346 34.530837 34.457448
34.384172 34.311007 34.237942 34.164974 34.092093 34.019291 33.946560 33.873890
33.801271 33.728694 33.656149 33.583625 33.511111
33.888889 33.981590 34.074303 34.167040 34.259813 34.352632 34.445508 34.538453
34.631477 34.724589 34.817797 34.911112 35.004538 35.098085 35.191755 35.285556
35.379488 35.473557 35.567759 35.662098 35.756569 35.851172 35.945897 36.040743
36.135696 36.230751 36.325891 36.421107 36.516379 36.611692 36.707024 36.802354
36.897657 36.992908 37.088074 37.183130 37.278038 37.372765 37.467270 37.561517
37.655459 37.749055 37.842254 37.935010 38.027267 38.118976 38.210076 38.300514
38.390225 38.479152 38.567225 38.654385 38.740559 38.825684 38.909685 38.992495
39.074037 39.154244 39.233036 39.310345 39.386090 39.460201 39.532599 39.603214
39.671967 39.738788 39.803601 39.866337 39.926923 39.985292 40.041373 40.095104
40.146418 40.195256 40.241556 40.285264 40.326323 40.364684 40.400298 40.433120
40.463108 40.490226 40.514435 40.535708 40.554015 40.569334 40.581643 40.590929
40.597179 40.600385 40.600543 40.597655 40.591723 40.582757 40.570769 40.555775
40.537796 40.516855 40.492982 40.466207 40.436567 40.404099 40.368847 40.330854
40.290173 40.246852 40.200947 40.152516 40.101618 40.048315 39.992674 39.934757
39.874637 39.812379 39.748059 39.681746 39.613516 39.543440 39.471597 39.398058
39.322902 39.246202 39.168035 39.088474 39.007596 38.925470 38.842175 38.757777
38.672350 38.585960 38.498678 38.410567 38.321694 38.232119 38.141904 38.051106
37.959785 37.867990 37.775778 37.683195 37.590292 37.497111 37.403699 37.310092
37.216332 37.122452 37.028488 36.934469 36.840427 36.746385 36.652371 36.558403
36.464506 36.370693 36.276985 36.183392 36.089928 35.996602 35.903423 35.810397
35.717530 35.624822 35.532279 35.439897 35.347679 35.255618 35.163714 35.071959
34.980350 34.888877 34.797533 34.706309 34.615195 34.524181 34.433257 34.342408
34.251626 34.160895 34.070204 33.979540 33.888889
34.266667 34.377923 34.489195 34.600494 34.711837 34.823236 34.934706 35.046258
35.157906 35.269660 35.381532 35.493532 35.605670 35.717951 35.830385 35.942975
36.055728 36.168643 36.281725 36.394971 36.508380 36.621947 36.735668 36.849532
36.963533 37.077655 37.191888 37.306210 37.420608 37.535055 37.649531 37.764007
37.878457 37.992845 38.107141 38.221304 38.335297 38.449074 38.562593 38.675802
38.788653 38.901089 39.013058 39.124494 39.235341 39.345529 39.454995 39.563665
39.671471 39.778334 39.884182 39.988930 40.092504 40.194816 40.295785 40.395323
40.493345 40.589761 40.684486 40.777424 40.868492 40.957594 41.044643 41.129547
41.212220 41.292567 41.370507 41.445947 41.518807 41.589000 41.656446 41.721065
41.782781 41.841517 41.897205 41.949773 41.999159 42.045299 42.088136 42.127615
42.163687 42.196304 42.225425 42.251013 42.273034 42.291460 42.306267 42.317437
42.324954 42.328810 42.329000 42.325525 42.318389 42.307603 42.293181 42.275145
42.253517 42.228327 42.199609 42.167403 42.131748 42.092694 42.050290 42.004593
41.955660 41.903555 41.848342 41.790093 41.728877 41.664772 41.597852 41.528202
41.455900 41.381034 41.303686 41.223948 41.141903 41.057645 40.971261 40.882846
40.792486 40.700276 40.606303 40.510661 40.413435 40.314719 40.214596 40.113156
40.010479 39.906654 39.801757 39.695872 39.589071 39.481436 39.373033 39.263938
39.154213 39.043930 38.933146 38.821925 38.710320 38.598391 38.486183 38.373750
38.261134 38.148382 38.035530 37.922620 37.809682 37.696753 37.583857 37.471025
37.358277 37.245639 37.133125 37.020757 36.908544 36.796503 36.684638 36.572963
36.461478 36.350192 36.239101 36.128211 36.017515 35.907014 35.796700 35.686570
35.576614 35.466825 35.357191 35.247703 35.138349 35.029116 34.919990 34.810958
34.702003 34.593113 34.484271 34.375461 34.266667
34.644444 34.774265 34.904102 35.033973 35.163894 35.293883 35.423954 35.554123
35.684404 35.814813 35.945360 36.076059 36.206918 36.337951 36.469161 36.600559
36.732147 36.863931 36.995910 37.128086 37.260454 37.393013 37.525752 37.658667
37.791742 37.924966 38.058320 38.191789 38.325346 38.458970 38.592630 38.726299
38.859939 38.993517 39.126988 39.260315 39.393445 39.526333 39.658922 39.791160
39.922982 40.054331 40.185134 40.315327 40.444833 40.573581 40.701487 40.828474
40.954453 41.079341 41.203043 41.325473 41.446530 41.566123 41.684148 41.800510
41.915101 42.027824 42.138570 42.247237 42.353717 42.457907 42.559697 42.658987
42.755666 42.849635 42.940786 43.029021 43.114238 43.196340 43.275230 43.350817
43.423008 43.491718 43.556861 43.618358 43.676131 43.730110 43.780224 43.826412
43.868613 43.906774 43.940844 43.970781 43.996544 44.018103 44.035426 44.048494
44.057289 44.061800 44.062021 44.057954 44.049604 44.036983 44.020109 43.999004
43.973699 43.944226 43.910627 43.872944 43.831230 43.785538 43.735929 43.682466
43.625221 43.564264 43.499675 43.431532 43.359924 43.284936 43.206661 43.125191
43.040625 42.953059 42.862598 42.769339 42.673392 42.574856 42.473843 42.370453
42.264798 42.156980 42.047111 41.935291 41.821629 41.706226 41.589188 41.470611
41.350600 41.229247 41.106654 40.982906 40.858100 40.732320 40.605654 40.478181
40.349985 40.221136 40.091715 39.961784 39.831417 39.700671 39.569612 39.438291
39.306768 39.175086 39.043300 38.911446 38.779570 38.647705 38.515890 38.384150
38.252518 38.121014 37.989666 37.858487 37.727499 37.596711 37.466139 37.335787
37.205665 37.075775 36.946121 36.816699 36.687513 36.558552 36.429817 36.301295
36.172982 36.044863 35.916930 35.789167 35.661563 35.534101 35.406767 35.279541
35.152409 35.025352 34.898351 34.771388 34.644444
35.022222 35.170615 35.319027 35.467478 35.615989 35.764576 35.913260 36.062056
36.210984 36.360057 36.509293 36.658704 36.808303 36.958101 37.108108 37.258330
37.408776 37.559447 37.710349 37.861477 38.012834 38.164410 38.316202 38.468195
38.620382 38.772742 38.925261 39.077913 39.230677 39.383520 39.536416 39.689325
39.842213 39.995032 40.147743 40.300291 40.452628 40.604690 40.756425 40.907759
41.058633 41.208967 41.358691 41.507720 41.655977 41.803369 41.949811 42.095204
42.239457 42.382463 42.524127 42.664334 42.802984 42.939959 43.075151 43.208440
43.339713 43.468848 43.595729 43.720231 43.842238 43.961622 44.078266 44.192045
44.302843 44.410534 44.515005 44.616135 44.713811 44.807918 44.898350 44.984994
45.067752 45.146518 45.221200 45.291701 45.357938 45.419823 45.477280 45.530235
45.578621 45.622374 45.661438 45.695763 45.725304 45.750022 45.769885 45.784868
45.794952 45.800123 45.800376 45.795711 45.786135 45.771662 45.752312 45.728112
45.699095 45.665301 45.626773 45.583566 45.535736 45.483347 45.426466 45.365171
45.299537 45.229652 45.155603 45.077485 44.995393 44.909432 44.819703 44.726319
44.629385 44.529021 44.425338 44.318458 44.208496 44.095578 43.979820 43.861351
43.740287 43.616756 43.490875 43.362772 43.232560 43.100367 42.966302 42.830488
42.693034 42.554057 42.413660 42.271957 42.129044 41.985030 41.840005 41.694070
41.547309 41.399817 41.251671 41.102957 40.953746 40.804116 40.654130 40.503859
40.353358 40.202691 40.051905 39.901056 39.750184 39.599338 39.448549 39.297860
39.147295 38.996890 38.846664 38.696643 38.546841 38.397278 38.247963 38.098910
37.950122 37.801606 37.653362 37.505392 37.357691 37.210257 37.063079 36.916153
36.769465 36.623006 36.476759 36.330711 36.184846 36.039146 35.893592 35.748166
35.602846 35.457614 35.312447 35.167324 35.022222
35.400000 35.566975 35.733972 35.901015 36.068124 36.235322 36.402629 36.570066
36.737652 36.905406 37.073344 37.241484 37.409838 37.578421 37.747241 37.916312
38.085636 38.255222 38.425069 38.595182 38.765553 38.936182 39.107057 39.278171
39.449504 39.621046 39.792769 39.964655 40.136671 40.308791 40.480973 40.653185
40.825377 40.997508 41.169521 41.341366 41.512977 41.684297 41.855251 42.025772
42.195778 42.365193 42.533926 42.701893 42.868994 43.035137 43.200215 43.364127
43.526759 43.688003 43.847735 44.005844 44.162200 44.316683 44.469159 44.619504
44.767579 44.913257 45.056395 45.196863 45.334518 45.469227 45.600846 45.729245
45.854279 45.975820 46.093726 46.207871 46.318119 46.424347 46.526425 46.624237
46.717659 46.806583 46.890895 46.970493 47.045274 47.115147 47.180020 47.239812
47.294445 47.343849 47.387958 47.426716 47.460072 47.487984 47.510413 47.527331
47.538716 47.544554 47.544838 47.539569 47.528754 47.512409 47.490557 47.463228
47.430461 47.392298 47.348793 47.300002 47.245994 47.186837 47.122613 47.053402
46.979298 46.900394 46.816793 46.728598 46.635923 46.538880 46.437592 46.332176
46.222764 46.109479 45.992458 45.871830 45.747735 45.620305 45.489683 45.356002
45.219408 45.080031 44.938019 44.793501 44.646620 44.497506 44.346298 44.193120
44.038109 43.881384 43.723076 43.563298 43.402174 43.239812 43.076329 42.911823
42.746405 42.580167 42.413210 42.245616 42.077481 41.908877 41.739890 41.570585
41.401040 41.231310 41.061463 40.891548 40.721625 40.551732 40.381921 40.212224
40.042684 39.873324 39.704181 39.535271 39.366621 39.198243 39.030156 38.862365
38.694884 38.527712 38.360856 38.194310 38.028075 37.862143 37.696507 37.531156
37.366080 37.201262 37.036689 36.872342 36.708205 36.544254 36.380472 36.216834
36.053318 35.889902 35.726560 35.563267 35.400000
35.777778 35.963346 36.148940 36.334584 36.520305 36.706124 36.892068 37.078158
37.264418 37.450866 37.637524 37.824409 38.011538 38.198924 38.386583 38.574522
38.762752 38.951277 39.140103 39.329227 39.518651 39.708365 39.898365 40.088635
40.279164 40.469928 40.660910 40.852078 41.043407 41.234856 41.426393 41.617967
41.809538 42.001047 42.192443 42.383659 42.574634 42.765291 42.955561 43.145356
43.334598 43.523189 43.711041 43.898048 44.084111 44.269115 44.452953 44.635500
44.816641 44.996242 45.174181 45.350317 45.524520 45.696641 45.866546 46.034082
46.199106 46.361462 46.521006 46.677577 46.831029 46.981200 47.127942 47.271095
47.410512 47.546034 47.677517 47.804806 47.927761 48.046232 48.160086 48.269180
48.373388 48.472576 48.566628 48.655420 48.738845 48.816793 48.889168 48.955874
49.016827 49.071944 49.121158 49.164400 49.201617 49.232757 49.257782 49.276657
49.289359 49.295872 49.296187 49.290306 49.278236 49.259997 49.235613 49.205119
49.168555 49.125974 49.077431 49.022994 48.962734 48.896734 48.825078 48.747865
48.665192 48.577170 48.483907 48.385528 48.282150 48.173909 48.060933 47.943363
47.821336 47.695002 47.564503 47.429994 47.291620 47.149542 47.003908 46.854879
46.702604 46.547246 46.388951 46.227883 46.064185 45.898017 45.729520 45.558849
45.386140 45.211541 45.035184 44.857211 44.677744 44.496920 44.314852 44.131669
43.947475 43.762389 43.576508 43.389942 43.202777 43.015112 42.827027 42.638609
42.449928 42.261063 42.072073 41.883027 41.693976 41.504979 41.316077 41.127320
40.938742 40.750383 40.562266 40.374427 40.186880 39.999651 39.812748 39.626190
39.439978 39.254123 39.068621 38.883477 38.698681 38.514231 38.330113 38.146320
37.962835 37.779645 37.596729 37.414070 37.231645 37.049433 36.867409 36.685550
36.503827 36.322217 36.140690 35.959220 35.777778
36.155556 36.359729 36.563931 36.768189 36.972532 37.176988 37.381581 37.586340
37.791287 37.996447 38.201841 38.407491 38.613414 38.819628 39.026145 39.232981
39.440142 39.647639 39.855471 40.063645 40.272154 40.480997 40.690159 40.899636
41.109403 41.319447 41.529736 41.740250 41.950947 42.161797 42.372749 42.583765
42.794784 43.005758 43.216614 43.427295 43.637720 43.847817 44.057496 44.266677
44.475256 44.683143 44.890224 45.096397 45.301540 45.505540 45.708262 45.909586
46.109368 46.307476 46.503759 46.698077 46.890270 47.080190 47.267671 47.452560
47.634684 47.813886 47.989988 48.162829 48.332231 48.498031 48.660048 48.818120
48.972069 49.121734 49.266939 49.407527 49.543329 49.674192 49.799955 49.920471
50.035588 50.145171 50.249077 50.347181 50.439353 50.525481 50.605449 50.679158
50.746509 50.807416 50.861796 50.909582 50.950707 50.985119 51.012772 51.033630
51.047665 51.054860 51.055206 51.048704 51.035364 51.015205 50.988256 50.954553
50.914146 50.867086 50.813442 50.753283 50.686693 50.613759 50.534582 50.449262
50.357916 50.260658 50.157619 50.048925 49.934720 49.815142 49.690343 49.560471
49.425689 49.286151 49.142026 48.993475 48.840673 48.683783 48.522983 48.358439
48.190331 48.018823 47.844095 47.666309 47.485644 47.302258 47.116325 46.927999
46.737449 46.544821 46.350278 46.153960 45.956020 45.756589 45.555814 45.353815
45.150729 44.946667 44.741755 44.536094 44.329799 44.122961 43.915685 43.708050
43.500150 43.292054 43.083844 42.875580 42.667333 42.459151 42.251097 42.043209
41.835538 41.628114 41.420978 41.214152 41.007666 40.801535 40.595781 40.390410
40.185436 39.980859 39.776686 39.572909 39.369528 39.166532 38.963913 38.761654
38.559744 38.358160 38.156886 37.955898 37.755174 37.554686 37.354410 37.154316
36.954377 36.754562 36.554841 36.355182 36.155556
36.533333 36.756124 36.978946 37.201831 37.424811 37.647914 37.871173 38.094614
38.318266 38.542154 38.766305 38.990738 39.215478 39.440541 39.665946 39.891703
40.117828 40.344324 40.571202 40.798457 41.026096 41.254105 41.482482 41.711208
41.940271 42.169644 42.399308 42.629223 42.859362 43.089675 43.320127 43.550656
43.781214 44.011732 44.242149 44.472384 44.702366 44.932001 45.161208 45.389880
45.617924 45.845222 46.071668 46.297133 46.521501 46.744629 46.966390 47.186632
47.405216 47.621980 47.836775 48.049430 48.259787 48.467666 48.672903 48.875311
49.074717 49.270932 49.463777 49.653058 49.838596 50.020193 50.197670 50.370829
50.539491 50.703462 50.862565 51.016612 51.165430 51.308836 51.446667 51.578749
51.704925 51.825035 51.938933 52.046469 52.147512 52.241928 52.329597 52.410403
52.484244 52.551018 52.610640 52.663030 52.708121 52.745849 52.776168 52.799035
52.814422 52.822309 52.822686 52.815554 52.800924 52.778818 52.749265 52.712310
52.668001 52.616402 52.557581 52.491622 52.418611 52.338649 52.251841 52.158306
52.058163 51.951548 51.838595 51.719454 51.594272 51.463212 51.326432 51.184105
51.036399 50.883496 50.725571 50.562814 50.395402 50.223531 50.047383 49.867154
49.683026 49.495199 49.303852 49.109181 48.911365 48.710597 48.507048 48.300907
48.092341 47.881529 47.668631 47.453819 47.237243 47.019067 46.799429 46.578483
46.356358 46.133196 45.909115 45.684245 45.458692 45.232576 45.005989 44.779040
44.551811 44.324396 44.096865 43.869304 43.641769 43.414332 43.187043 42.959961
42.733123 42.506579 42.280356 42.054494 41.829011 41.603935 41.379278 41.155058
40.931277 40.707947 40.485063 40.262627 40.040628 39.819063 39.597914 39.377170
39.156810 38.936817 38.717165 38.497834 38.278793 38.060017 37.841474 37.623135
37.404967 37.186937 36.969011 36.751155 36.533333
36.911111 37.152531 37.393986 37.635511 37.877140 38.118907 38.360844 38.602985
38.845358 39.087994 39.330918 39.574159 39.817737 40.061676 40.305991 40.550703
40.795819 41.041354 41.287308 41.533692 41.780496 42.027724 42.275358 42.523393
42.771802 43.020572 43.269665 43.519058 43.768703 44.018566 44.268589 44.518725
44.768904 45.019070 45.269139 45.519042 45.768682 46.017980 46.266825 46.515123
46.762752 47.009606 47.255548 47.500459 47.744192 47.986612 48.227562 48.466894
48.704439 48.940039 49.173513 49.404693 49.633388 49.859420 50.082592 50.302717
50.519589 50.733018 50.942793 51.148717 51.350577 51.548176 51.741297 51.929744
52.113302 52.291776 52.464956 52.632651 52.794656 52.950787 53.100850 53.244667
53.382056 53.512850 53.636880 53.753993 53.864033 53.966864 54.062346 54.150359
54.230784 54.303517 54.368459 54.425526 54.474640 54.515737 54.548760 54.573669
54.590428 54.599017 54.599424 54.591652 54.575712 54.551626 54.519431 54.479170
54.430901 54.374689 54.310615 54.238763 54.159235 54.072135 53.977585 53.875707
53.766641 53.650525 53.527517 53.397771 53.261459 53.118747 52.969821 52.814858
52.654056 52.487600 52.315695 52.138535 51.956330 51.769278 51.577594 51.381477
51.181144 50.976793 50.768640 50.556883 50.341733 50.123382 49.902039 49.677888
49.451132 49.221948 48.990529 48.757042 48.521672 48.284576 48.045926 47.805868
47.564565 47.322148 47.078767 46.834543 46.589612 46.344081 46.098075 45.851687
45.605028 45.358179 45.111238 44.864274 44.617370 44.370584 44.123987 43.877625
43.631556 43.385815 43.140450 42.895485 42.650955 42.406876 42.163273 41.920152
41.677528 41.435400 41.193774 40.952640 40.711998 40.471830 40.232129 39.992872
39.754044 39.515618 39.277573 39.039878 38.802508 38.565427 38.328606 38.092008
37.855600 37.619343 37.383202 37.147137 36.911111
37.288889 37.548951 37.809052 38.069230 38.329523 38.589966 38.850599 39.111454
39.372567 39.633967 39.895689 40.157756 40.420199 40.683037 40.946296 41.209987
41.474133 41.738737 42.003813 42.269360 42.535383 42.801871 43.068822 43.336215
43.604038 43.872261 44.140861 44.409796 44.679034 44.948520 45.218210 45.488037
45.757944 46.027851 46.297689 46.567363 46.836791 47.105865 47.374488 47.642537
47.909903 48.176448 48.442049 48.706553 48.969823 49.231694 49.492015 49.750606
50.007304 50.261917 50.514270 50.764161 51.011402 51.255780 51.497100 51.735141
51.969698 52.200544 52.427469 52.650241 52.868646 53.082450 53.291437 53.495373
53.694045 53.887220 54.074688 54.256222 54.431618 54.600658 54.763145 54.918871
55.067651 55.209292 55.343619 55.470454 55.589640 55.701016 55.804442 55.899775
55.986895 56.065681 56.136032 56.197851 56.251056 56.295575 56.331350 56.358332
56.376486 56.385787 56.386225 56.377801 56.360528 56.334431 56.299546 56.255926
56.203628 56.142729 56.073311 55.995472 55.909316 55.814965 55.712542 55.602189
55.484051 55.358287 55.225059 55.084547 54.936924 54.782387 54.621123 54.453340
54.279239 54.099036 53.912941 53.721179 53.523963 53.321528 53.114087 52.901877
52.685115 52.464037 52.238858 52.009810 51.777107 51.540976 51.301623 51.059271
50.814117 50.566375 50.316233 50.063895 49.809537 49.553354 49.295508 49.036182
48.775525 48.513707 48.250864 47.987150 47.722688 47.457619 47.192052 46.926112
46.659893 46.393508 46.127038 45.860578 45.594198 45.327980 45.061978 44.796263
44.530877 44.265876 44.001291 43.737166 43.473522 43.210391 42.947782 42.685718
42.424200 42.163238 41.902825 41.642964 41.383639 41.124845 40.866559 40.608769
40.351445 40.094569 39.838108 39.582036 39.326317 39.070919 38.815804 38.560936
38.306275 38.051781 37.797413 37.543130 37.288889
37.666667 37.945384 38.224144 38.502988 38.781957 39.061094 39.340436 39.620023
39.899892 40.180079 40.460615 40.741535 41.022864 41.304633 41.586859 41.869569
42.152772 42.436490 42.720723 43.005484 43.290766 43.576574 43.862890 44.149708
44.437001 44.724754 45.012926 45.301490 45.590395 45.879601 46.169042 46.458668
46.748397 47.038165 47.327878 47.617455 47.906788 48.195782 48.484312 48.772269
49.059512 49.345917 49.631329 49.915607 50.198579 50.480092 50.759960 51.038012
51.314050 51.587890 51.859319 52.128142 52.394134 52.657087 52.916768 53.172960
53.425419 53.673921 53.918218 54.158079 54.393251 54.623501 54.848576 55.068241
55.282244 55.490354 55.692322 55.887923 56.076914 56.259078 56.434184 56.602022
56.762377 56.915050 57.059842 57.196572 57.325055 57.445129 57.556630 57.659415
57.753343 57.838292 57.914144 57.980800 58.038167 58.086170 58.124743 58.153836
58.173408 58.183434 58.183903 58.174814 58.156183 58.128037 58.090416 58.043373
57.986977 57.921304 57.846450 57.762514 57.669617 57.567882 57.457453 57.338474
57.211111 57.075529 56.931913 56.780445 56.621330 56.454764 56.280966 56.100148
55.912542 55.718367 55.517867 55.311270 55.098826 54.880767 54.657348 54.428804
54.195391 53.957343 53.714916 53.468339 53.217865 52.963718 52.706144 52.445360
52.181602 51.915080 51.646019 51.374615 51.101084 50.825610 50.548393 50.269604
49.989432 49.708030 49.425572 49.142199 48.858067 48.573302 48.288045 48.002407
47.716514 47.430459 47.144355 46.858279 46.572329 46.286569 46.001080 45.715914
45.431137 45.146788 44.862919 44.579558 44.296744 44.014492 43.732831 43.451766
43.171312 42.891466 42.612233 42.333600 42.055566 41.778107 41.501214 41.224858
40.949020 40.673668 40.398775 40.124304 39.850223 39.576490 39.303069 39.029917
38.756992 38.484250 38.211645 37.939133 37.666667
38.044444 38.341830 38.639261 38.936784 39.234445 39.532287 39.830355 40.128690
40.427334 40.726324 41.025700 41.325493 41.625738 41.926460 42.227690 42.529445
42.831749 43.134613 43.438052 43.742067 44.046667 44.351840 44.657587 44.963886
45.270725 45.578071 45.885901 46.194167 46.502836 46.811846 47.121148 47.430667
47.740340 48.050076 48.359797 48.669396 48.978781 49.287826 49.596424 49.904433
50.211728 50.518151 50.823560 51.127782 51.430658 51.731996 52.031623 52.329332
52.624934 52.918207 53.208946 53.496918 53.781904 54.063658 54.341952 54.616526
54.887144 55.153540 55.415469 55.672659 55.924859 56.171797 56.413219 56.648852
56.878443 57.101721 57.318440 57.528333 57.731160 57.926665 58.114617 58.294772
58.466913 58.630811 58.786262 58.933059 59.071014 59.199940 59.319671 59.430042