# vtk DataFile Version 3.0
Steady-state temperature (Jacobi)
ASCII
DATASET STRUCTURED_POINTS
DIMENSIONS 181 181 1
ORIGIN 0.0 0.0 0.0
SPACING 0.05 0.05 1.0
POINT_DATA 32761
SCALARS Temperature float 1
LOOKUP_TABLE default
32.000000 32.000000 32.000000 32.000000 32.000000 32.000000 32.000000 32.000000
32.000000 32.000000 32.000000 32.000000 32.000000 32.000000 32.000000 32.000000
32.000000 32.000000 32.000000 32.000000 32.000000 32.000000 32.000000 32.000000
32.000000 32.000000 32.000000 32.000000 32.000000 32.000000 32.000000 32.000000
32.000000 32.000000 32.000000 32.000000 32.000000 32.000000 32.000000 32.000000
32.000000 32.000000 32.000000 32.000000 32.000000 32.000000 32.000000 32.000000
32.000000 32.000000 32.000000 32.000000 32.000000 32.000000 32.000000 32.000000
32.000000 32.000000 32.000000 32.000000 32.000000 32.000000 32.000000 32.000000
32.000000 32.000000 32.000000 32.000000 32.000000 32.000000 32.000000 32.000000
32.000000 32.000000 32.000000 32.000000 32.000000 32.000000 32.000000 32.000000
32.000000 32.000000 32.000000 32.000000 32.000000 32.000000 32.000000 32.000000
32.000000 32.000000 32.000000 32.000000 32.000000 32.000000 32.000000 32.000000
32.000000 32.000000 32.000000 32.000000 32.000000 32.000000 32.000000 32.000000
32.000000 32.000000 32.000000 32.000000 32.000000 32.000000 32.000000 32.000000
32.000000 32.000000 32.000000 32.000000 32.000000 32.000000 32.000000 32.000000
32.000000 32.000000 32.000000 32.000000 32.000000 32.000000 32.000000 32.000000
32.000000 32.000000 32.000000 32.000000 32.000000 32.000000 32.000000 32.000000
32.000000 32.000000 32.000000 32.000000 32.000000 32.000000 32.000000 32.000000
32.000000 32.000000 32.000000 32.000000 32.000000 32.000000 32.000000 32.000000
32.000000 32.000000 32.000000 32.000000 32.000000 32.000000 32.000000 32.000000
32.000000 32.000000 32.000000 32.000000 32.000000 32.000000 32.000000 32.000000
32.000000 32.000000 32.000000 32.000000 32.000000 32.000000 32.000000 32.000000
32.000000 32.000000 32.000000 32.000000 32.000000
32.377778 32.372583 32.367405 32.362262 32.357168 32.352143 32.347200 32.342360
32.337633 32.333043 32.328596 32.324319 32.320214 32.316309 32.312604 32.309129
32.305879 32.302887 32.300144 32.297684 32.295495 32.293610 32.292017 32.290748
32.289786 32.289165 32.288865 32.288921 32.289306 32.290058 32.291147 32.292608
32.294409 32.296586 32.299102 32.301993 32.305218 32.308814 32.312735 32.317016
32.321611 32.326554 32.331793 32.337362 32.343207 32.349361 32.355766 32.362455
32.369367 32.376532 32.383890 32.391469 32.399205 32.407126 32.415167 32.423354
32.431621 32.439992 32.448402 32.456873 32.465339 32.473821 32.482254 32.490657
32.498966 32.507200 32.515295 32.523269 32.531061 32.538686 32.546087 32.553279
32.560206 32.566881 32.573256 32.579339 32.585087 32.590508 32.595562 32.600258
32.604561 32.608477 32.611977 32.615067 32.617724 32.619951 32.621733 32.623071
32.623956 32.624389 32.624367 32.623890 32.622960 32.621577 32.619750 32.617476
32.614773 32.611635 32.608086 32.604120 32.599767 32.595018 32.589910 32.584433
32.578628 32.572485 32.566049 32.559311 32.552318 32.545058 32.537587 32.529889
32.522022 32.513970 32.505794 32.497477 32.489082 32.480590 32.472066 32.463489
32.454926 32.446356 32.437843 32.429366 32.420991 32.412693 32.404538 32.396501
32.388646 32.380946 32.373466 32.366175 32.359136 32.352318 32.345783 32.339497
32.333519 32.327816 32.322442 32.317365 32.312635 32.308218 32.304163 32.300434
32.297076 32.294054 32.291409 32.289105 32.287180 32.285598 32.284392 32.283527
32.283032 32.282872 32.283073 32.283600 32.284475 32.285664 32.287185 32.289005
32.291137 32.293550 32.296254 32.299217 32.302448 32.305916 32.309625 32.313545
32.317678 32.321996 32.326497 32.331154 32.335963 32.340898 32.345952 32.351103
32.356339 32.361639 32.366992 32.372376 32.377778
32.755556 32.745176 32.734831 32.724552 32.714377 32.704333 32.694463 32.684786
32.675351 32.666172 32.657301 32.648745 32.640560 32.632748 32.625366 32.618412
32.611945 32.605955 32.600504 32.595577 32.591237 32.587461 32.584315 32.581769
32.579891 32.578641 32.578090 32.578191 32.579015 32.580508 32.582741 32.585653
32.589315 32.593658 32.598753 32.604524 32.611042 32.618221 32.626133 32.634686
32.643949 32.653823 32.664377 32.675505 32.687274 32.699571 32.712462 32.725830
32.739736 32.754059 32.768858 32.784008 32.799565 32.815400 32.831567 32.847934
32.864553 32.881291 32.898194 32.915131 32.932146 32.949106 32.966052 32.982855
32.999552 33.016016 33.032283 33.048228 33.063883 33.079132 33.094002 33.108383
33.122300 33.135650 33.148455 33.160621 33.172167 33.183009 33.193163 33.202554
33.211197 33.219029 33.226060 33.232239 33.237576 33.242031 33.245610 33.248286
33.250065 33.250931 33.250887 33.249932 33.248064 33.245298 33.241628 33.237081
33.231651 33.225376 33.218248 33.210316 33.201571 33.192075 33.181813 33.170860
33.159198 33.146914 33.133986 33.120509 33.106461 33.091944 33.076933 33.061539
33.045733 33.029632 33.013205 32.996575 32.979706 32.962725 32.945596 32.928447
32.911238 32.894101 32.876992 32.860043 32.843208 32.826618 32.810224 32.794157
32.778363 32.762971 32.747926 32.733353 32.719192 32.705567 32.692415 32.679854
32.667819 32.656423 32.645601 32.635456 32.625923 32.617101 32.608920 32.601473
32.594691 32.588658 32.583305 32.578708 32.574798 32.571644 32.569176 32.567456
32.566414 32.566104 32.566458 32.567521 32.569226 32.571613 32.574613 32.578259
32.582486 32.587317 32.592691 32.598624 32.605054 32.611994 32.619383 32.627226
32.635467 32.644105 32.653084 32.662398 32.671996 32.681865 32.691957 32.702254
32.712712 32.723308 32.734000 32.744762 32.755556
33.133333 33.117789 33.102293 33.086903 33.071660 33.056626 33.041837 33.027359
33.013220 32.999494 32.986198 32.973411 32.961143 32.949477 32.938413 32.928039
32.918345 32.909423 32.901254 32.893933 32.887429 32.881841 32.877128 32.873391
32.870579 32.868793 32.867973 32.868220 32.869463 32.871806 32.875163 32.879641
32.885143 32.891775 32.899428 32.908208 32.917996 32.928896 32.940777 32.953744
32.967653 32.982608 32.998456 33.015297 33.032969 33.051570 33.070928 33.091137
33.112020 33.133666 33.155891 33.178779 33.202142 33.226061 33.250340 33.275058
33.300017 33.325290 33.350677 33.376248 33.401802 33.427404 33.452857 33.478219
33.503297 33.528147 33.552578 33.576642 33.600157 33.623168 33.645504 33.667204
33.688108 33.708252 33.727487 33.745843 33.763187 33.779544 33.794796 33.808966
33.821949 33.833764 33.844326 33.853649 33.861666 33.868386 33.873762 33.877801
33.880472 33.881779 33.881713 33.880272 33.877468 33.873294 33.867782 33.860923
33.852767 33.843301 33.832593 33.820628 33.807491 33.793164 33.777750 33.761225
33.743709 33.725175 33.705756 33.685422 33.664321 33.642417 33.619871 33.596641
33.572900 33.548603 33.523930 33.498832 33.473495 33.447867 33.422139 33.396254
33.370408 33.344538 33.318843 33.293253 33.267969 33.242918 33.218298 33.194031
33.170312 33.147061 33.124467 33.102445 33.081181 33.060585 33.040836 33.021840
33.003769 32.986527 32.970275 32.954915 32.940601 32.927230 32.914945 32.903645
32.893460 32.884287 32.876247 32.869235 32.863361 32.858520 32.854811 32.852128
32.850558 32.849997 32.850522 32.852028 32.854581 32.858078 32.862573 32.867967
32.874302 32.881480 32.889535 32.898371 32.908010 32.918362 32.929439 32.941152
32.953505 32.966415 32.979874 32.993803 33.008189 33.022955 33.038079 33.053492
33.069163 33.085028 33.101047 33.117164 33.133333
33.511111 33.490429 33.469817 33.449337 33.429067 33.409058 33.389399 33.370129
33.351343 33.333073 33.315418 33.298399 33.282122 33.266596 33.251933 33.238129
33.225302 33.213435 33.202650 33.192916 33.184362 33.176941 33.170785 33.165834
33.162223 33.159875 33.158931 33.159297 33.161115 33.164278 33.168926 33.174940
33.182460 33.191348 33.201748 33.213506 33.226762 33.241351 33.257410 33.274759
33.293533 33.313537 33.334906 33.357430 33.381240 33.406115 33.432181 33.459205
33.487311 33.516255 33.546156 33.576761 33.608183 33.640165 33.672811 33.705862
33.739415 33.773207 33.807330 33.841519 33.875862 33.910094 33.944296 33.978208
34.011903 34.045129 34.077952 34.110128 34.141717 34.172485 34.202489 34.231505
34.259583 34.286518 34.312352 34.336897 34.360191 34.382063 34.402547 34.421493
34.438930 34.454728 34.468913 34.481379 34.492145 34.501132 34.508352 34.513752
34.517339 34.519088 34.518999 34.517073 34.513308 34.507728 34.500326 34.491156
34.480203 34.467546 34.453167 34.437168 34.419528 34.400371 34.379671 34.357576
34.334052 34.309270 34.283190 34.256002 34.227661 34.198374 34.168089 34.137030
34.105139 34.072653 34.039507 34.005949 33.971910 33.937643 33.903075 33.868466
33.833734 33.799145 33.764610 33.730397 33.696410 33.662916 33.629815 33.597368
33.565472 33.534383 33.503991 33.474546 33.445932 33.418391 33.391804 33.366402
33.342061 33.319001 33.297095 33.276551 33.257236 33.239349 33.222752 33.207630
33.193844 33.181563 33.170647 33.161252 33.153237 33.146740 33.141622 33.138006
33.135752 33.134970 33.135520 33.137496 33.140761 33.145394 33.151260 33.158423
33.166752 33.176296 33.186928 33.198684 33.211438 33.225215 33.239895 33.255487
33.271877 33.289062 33.306934 33.325479 33.344593 33.364252 33.384358 33.404876
33.425717 33.446834 33.468146 33.489596 33.511111
33.888889 33.863110 33.837414 33.811893 33.786620 33.761697 33.737183 33.713191
33.689768 33.667034 33.645023 33.623864 33.603574 33.584293 33.566020 33.548904
33.532928 33.518245 33.504824 33.492822 33.482192 33.473096 33.465467 33.459473
33.455030 33.452308 33.451203 33.451889 33.454243 33.458441 33.464342 33.472120
33.481616 33.493006 33.506110 33.521103 33.537787 33.556335 33.576530 33.598545
33.622143 33.647493 33.674342 33.702856 33.732766 33.764231 33.796968 33.831133
33.866427 33.903001 33.940546 33.979204 34.018656 34.059040 34.100028 34.141750
34.183876 34.226524 34.269364 34.312507 34.355621 34.398811 34.441748 34.484528
34.526829 34.568739 34.609944 34.650526 34.690183 34.728987 34.766651 34.803243
34.838491 34.872455 34.904887 34.935836 34.965078 34.992656 35.018371 35.042259
35.064147 35.084067 35.101873 35.117591 35.131106 35.142436 35.151500 35.158309
35.162813 35.165018 35.164907 35.162480 35.157753 35.150720 35.141430 35.129869
35.116120 35.100165 35.082115 35.061946 35.039802 35.015652 34.989667 34.961810
34.932281 34.901034 34.868297 34.834015 34.798439 34.761508 34.723492 34.684324
34.644292 34.603321 34.561713 34.519387 34.476656 34.433432 34.390038 34.346376
34.302776 34.259133 34.215780 34.172604 34.129937 34.087660 34.046103 34.005139
33.965094 33.925832 33.887672 33.850472 33.814542 33.779734 33.746344 33.714220
33.683647 33.654464 33.626942 33.600918 33.576646 33.553957 33.533091 33.513875
33.496530 33.480883 33.467136 33.455113 33.444998 33.436615 33.430129 33.425365
33.422467 33.421261 33.421874 33.424133 33.428145 33.433741 33.441009 33.449783
33.460134 33.471900 33.485133 33.499676 33.515565 33.532648 33.550944 33.570308
33.590744 33.612111 33.634399 33.657475 33.681315 33.705794 33.730872 33.756433
33.782426 33.808743 33.835321 33.862061 33.888889
34.266667 34.235836 34.205112 34.174586 34.144378 34.114565 34.085278 34.056580
34.028613 34.001423 33.975163 33.949862 33.925683 33.902637 33.880894 33.860448
33.841478 33.823956 33.808070 33.793771 33.781253 33.770447 33.761551 33.754476
33.749424 33.746283 33.745260 33.746219 33.749370 33.754555 33.761985 33.771478
33.783246 33.797085 33.813206 33.831382 33.851823 33.874279 33.898957 33.925586
33.954370 33.985015 34.017722 34.052177 34.088575 34.126585 34.166394 34.207655
34.250549 34.294712 34.340318 34.386991 34.434897 34.483648 34.533403 34.583767
34.634888 34.686368 34.738344 34.790418 34.842719 34.894848 34.946925 34.998558
35.049857 35.100439 35.150404 35.199381 35.247463 35.294295 35.339958 35.384119
35.426850 35.467839 35.507153 35.544504 35.579949 35.613231 35.644400 35.673228
35.699758 35.723798 35.745379 35.764348 35.780728 35.794402 35.805388 35.813605
35.819065 35.821727 35.821594 35.818666 35.812939 35.804452 35.793194 35.779244
35.762584 35.743329 35.721456 35.697117 35.670281 35.641137 35.609644 35.576028
35.540238 35.502531 35.462849 35.421479 35.378355 35.333787 35.287702 35.240434
35.191901 35.142456 35.092008 35.040928 34.989113 34.936948 34.884321 34.831627
34.778743 34.726069 34.673476 34.621363 34.569592 34.518563 34.468126 34.418678
34.370061 34.322663 34.276318 34.231405 34.187749 34.145715 34.105124 34.066324
34.029128 33.993871 33.960358 33.928904 33.899311 33.871875 33.846391 33.823135
33.801901 33.782942 33.766048 33.751450 33.738939 33.728723 33.720591 33.714729
33.710926 33.709345 33.709778 33.712365 33.716899 33.723500 33.731963 33.742386
33.754569 33.768588 33.784250 33.801607 33.820474 33.840884 33.862657 33.885808
33.910163 33.935720 33.962313 33.989921 34.018389 34.047679 34.077644 34.108231
34.139305 34.170796 34.202581 34.234575 34.266667
34.644444 34.608624 34.572919 34.537463 34.502355 34.467742 34.433705 34.400406
34.367908 34.336384 34.305877 34.276574 34.248497 34.221843 34.196614 34.173014
34.151025 34.130860 34.112476 34.096096 34.081651 34.069372 34.059165 34.051266
34.045556 34.042276 34.041280 34.042813 34.046703 34.053197 34.062096 34.073647
34.087626 34.104279 34.123356 34.145101 34.169236 34.196006 34.225104 34.256773
34.290681 34.327064 34.365569 34.406425 34.449256 34.494284 34.541112 34.589956
34.640399 34.692648 34.746269 34.801462 34.857779 34.915407 34.973891 35.033407
35.093491 35.154309 35.215394 35.276901 35.338363 35.399924 35.461121 35.522087
35.582367 35.642084 35.700795 35.758612 35.815109 35.870386 35.924040 35.976161
36.026368 36.074743 36.120934 36.165012 36.206658 36.245932 36.282553 36.316570
36.347741 36.376106 36.401463 36.423844 36.443090 36.459225 36.472132 36.481829
36.488244 36.491386 36.491231 36.487779 36.481052 36.471041 36.457816 36.441360
36.421787 36.399072 36.373374 36.344660 36.313132 36.278747 36.241748 36.202084
36.160036 36.115543 36.068922 36.020104 35.969437 35.916841 35.862696 35.806909
35.749886 35.691525 35.632250 35.571951 35.511069 35.449483 35.387645 35.325424
35.263282 35.201075 35.139270 35.077713 35.016872 34.956579 34.897301 34.838859
34.781713 34.725674 34.671192 34.618067 34.566735 34.516990 34.469250 34.423300
34.379540 34.337748 34.298304 34.260977 34.226125 34.193514 34.163477 34.135775
34.110715 34.088056 34.068080 34.050542 34.035699 34.023304 34.013588 34.006304
34.001655 33.999398 33.999707 34.002342 34.007452 34.014798 34.024505 34.036338
34.050396 34.066451 34.084577 34.104552 34.126426 34.149985 34.175257 34.202034
34.230323 34.259927 34.290830 34.322845 34.355936 34.389929 34.424767 34.460287
34.496416 34.533002 34.569955 34.607139 34.644444
35.022222 34.981474 34.940868 34.900530 34.860618 34.821238 34.782566 34.744685
34.707788 34.671937 34.637337 34.604027 34.572226 34.541950 34.513427 34.486650
34.461858 34.439016 34.418375 34.399871 34.383764 34.369962 34.358731 34.349953
34.343898 34.340417 34.339787 34.341828 34.346821 34.354555 34.365311 34.378850
34.395453 34.414848 34.437317 34.462558 34.490850 34.521860 34.555864 34.592500
34.632040 34.674091 34.718921 34.766111 34.815918 34.867901 34.922309 34.978676
35.037242 35.097520 35.159742 35.223404 35.288723 35.355183 35.422990 35.491617
35.561259 35.631381 35.702165 35.773075 35.844280 35.915248 35.986134 36.056411
36.126225 36.195059 36.263047 36.329688 36.395104 36.458818 36.520936 36.581009
36.639132 36.694886 36.748356 36.799157 36.847363 36.892627 36.935014 36.974219
37.010296 37.042987 37.072334 37.098129 37.120403 37.138998 37.153937 37.165113
37.172540 37.176162 37.175985 37.172008 37.164226 37.152691 37.137389 37.118426
37.095778 37.069602 37.039866 37.006776 36.970291 36.930665 36.887847 36.842137
36.793472 36.742196 36.688236 36.631974 36.573326 36.512710 36.450030 36.385735
36.319718 36.252453 36.183822 36.114323 36.043822 35.972835 35.901217 35.829495
35.757512 35.685802 35.614196 35.543230 35.472723 35.403208 35.334492 35.267104
35.200837 35.136209 35.073003 35.011724 34.952142 34.894746 34.839296 34.786261
34.735391 34.687133 34.641228 34.598100 34.557482 34.519770 34.484694 34.452619
34.423271 34.396988 34.373490 34.353087 34.335496 34.320997 34.309306 34.300672
34.294814 34.291947 34.291794 34.294541 34.299911 34.308062 34.318723 34.332019
34.347687 34.365825 34.386174 34.408805 34.433467 34.460206 34.488779 34.519204
34.551251 34.584914 34.619971 34.656393 34.693973 34.732657 34.772250 34.812679
34.853764 34.895408 34.937448 34.979769 35.022222
35.400000 35.354405 35.308961 35.263839 35.219169 35.175142 35.131864 35.089544
35.048263 35.008248 34.969555 34.932424 34.896888 34.863198 34.831360 34.801639
34.774011 34.748753 34.725810 34.705470 34.687647 34.672637 34.660323 34.651008
34.644540 34.641230 34.640893 34.643844 34.649862 34.659265 34.671799 34.687782
34.706926 34.729550 34.755328 34.784579 34.816943 34.852735 34.891562 34.933732
34.978822 35.027133 35.078209 35.132345 35.189055 35.248625 35.310541 35.375080
35.441704 35.510676 35.581437 35.654240 35.728508 35.804478 35.881561 35.959980
36.039137 36.119241 36.199687 36.280671 36.361590 36.442623 36.523172 36.603404
36.682729 36.761302 36.838549 36.914608 36.988931 37.061640 37.132213 37.200762
37.266794 37.330410 37.391154 37.449113 37.503876 37.555516 37.603667 37.648393
37.689376 37.726668 37.760006 37.789431 37.814735 37.835947 37.852918 37.865668
37.874106 37.878240 37.878041 37.873508 37.864670 37.851516 37.834137 37.812511
37.786787 37.756934 37.723158 37.685417 37.643975 37.598777 37.550140 37.497999
37.442719 37.384226 37.322930 37.258744 37.192121 37.122962 37.051756 36.978393
36.903394 36.826634 36.748663 36.669342 36.589243 36.508213 36.426841 36.344959
36.263166 36.181282 36.099911 36.018858 35.938727 35.859309 35.781205 35.704190
35.628857 35.554967 35.483098 35.413001 35.345235 35.279539 35.216450 35.155696
35.097793 35.042455 34.990171 34.940649 34.894348 34.850967 34.810936 34.773947
34.740397 34.709973 34.683041 34.659283 34.639031 34.621967 34.608386 34.597971
34.590982 34.587105 34.586566 34.589051 34.594753 34.603364 34.615043 34.629486
34.646821 34.666752 34.689373 34.714397 34.741888 34.771569 34.803473 34.837335
34.873159 34.910691 34.949910 34.990574 35.032636 35.075867 35.120196 35.165411
35.211417 35.258016 35.305092 35.352466 35.400000
35.777778 35.727416 35.677234 35.627390 35.578085 35.529453 35.481715 35.434978
35.389485 35.345314 35.302724 35.261766 35.222715 35.185593 35.150688 35.117991
35.087804 35.060085 35.035149 35.012917 34.993717 34.977435 34.964406 34.954482
34.948004 34.944786 34.945176 34.948949 34.956459 34.967442 34.982252 35.000588
35.022805 35.048562 35.078213 35.111379 35.148410 35.188888 35.233161 35.280774
35.332065 35.386545 35.444545 35.505541 35.569854 35.636929 35.707077 35.779711
35.855131 35.932726 36.012780 36.094661 36.178638 36.264062 36.351187 36.439349
36.528787 36.618829 36.709699 36.800721 36.892102 36.983171 37.074117 37.164278
37.253827 37.342118 37.429309 37.514772 37.598650 37.680345 37.759984 37.837001
37.911509 37.982981 38.051517 38.116633 38.178415 38.236430 38.290751 38.340996
38.387229 38.429123 38.466730 38.499787 38.528330 38.552161 38.571306 38.585630
38.595150 38.599797 38.599576 38.594486 38.584521 38.569749 38.550150 38.525860
38.496850 38.463318 38.425224 38.382832 38.336089 38.285319 38.230458 38.171887
38.109530 38.043821 37.974673 37.902567 37.827403 37.749707 37.669366 37.586944
37.502314 37.416073 37.328078 37.238955 37.148547 37.057499 36.965638 36.873627
36.781274 36.689253 36.597356 36.506259 36.415738 36.326468 36.238208 36.151624
36.066462 35.983374 35.902091 35.823246 35.746557 35.672637 35.601188 35.532798
35.467159 35.404828 35.345487 35.289663 35.237026 35.188071 35.142460 35.100653
35.062305 35.027840 34.996907 34.969893 34.946446 34.926913 34.910940 34.898837
34.890251 34.885452 34.884090 34.886397 34.892028 34.901176 34.913501 34.929161
34.947822 34.969606 34.994189 35.021658 35.051697 35.084360 35.119343 35.156669
35.196045 35.237463 35.280645 35.325551 35.371921 35.419686 35.468602 35.518573
35.569372 35.620880 35.672886 35.725249 35.777778
36.155556 36.100527 36.045685 35.991241 35.937358 35.884269 35.832107 35.781130
35.731441 35.683316 35.636830 35.592276 35.549695 35.509401 35.471399 35.436018
35.403230 35.373374 35.346388 35.322624 35.301979 35.284818 35.270997 35.260892
35.254317 35.251655 35.252679 35.257776 35.266680 35.279779 35.296764 35.318025
35.343209 35.372708 35.406125 35.443849 35.485440 35.531283 35.580897 35.634660
35.692051 35.753439 35.818264 35.886887 35.958711 36.034082 36.112373 36.193916
36.278051 36.365099 36.454371 36.546173 36.639794 36.735522 36.832630 36.931387
37.031056 37.131888 37.233138 37.335040 37.436848 37.538779 37.640093 37.740988
37.840740 37.939526 38.036643 38.132253 38.225676 38.317059 38.405756 38.491897
38.574876 38.654808 38.731134 38.803952 38.872754 38.937627 38.998118 39.054300
39.105783 39.152626 39.194504 39.231464 39.263249 39.289895 39.311215 39.327232
39.337835 39.343034 39.342791 39.337105 39.326013 39.309503 39.287684 39.260534
39.228235 39.190752 39.148339 39.100949 39.048904 38.992145 38.931060 38.865575
38.796141 38.722671 38.645672 38.565042 38.481342 38.394454 38.304985 38.212803
38.118552 38.022087 37.924086 37.824385 37.723688 37.621818 37.519497 37.416530
37.313653 37.210652 37.108272 37.006280 36.905421 36.805444 36.707088 36.610084
36.515161 36.422031 36.331407 36.242985 36.157455 36.074498 35.994777 35.917959
35.844678 35.774588 35.708289 35.645423 35.586554 35.531315 35.480231 35.432928
35.389890 35.350738 35.315914 35.285034 35.258500 35.235923 35.217665 35.203335
35.193253 35.187030 35.184942 35.186606 35.192255 35.201510 35.214564 35.231045
35.251106 35.274383 35.300991 35.330576 35.363214 35.398564 35.436666 35.477191
35.520144 35.565212 35.612367 35.661310 35.711982 35.764102 35.817580 35.872154
35.927705 35.983992 36.040868 36.098113 36.155556
36.533333 36.473734 36.414354 36.355384 36.297071 36.239575 36.183167 36.127978
36.074300 36.022231 35.972085 35.923926 35.878086 35.834593 35.793799 35.755692
35.720639 35.688592 35.659931 35.634565 35.612887 35.594766 35.580605 35.570228
35.564047 35.561841 35.564029 35.570345 35.581211 35.596316 35.616084 35.640155
35.668956 35.702080 35.739951 35.782115 35.828993 35.880083 35.935800 35.995600
36.059887 36.128073 36.200553 36.276697 36.356888 36.440457 36.527774 36.618133
36.711889 36.808305 36.907717 37.009363 37.113561 37.219526 37.327557 37.436852
37.547691 37.659263 37.771826 37.884566 37.997722 38.110481 38.223064 38.334668
38.445493 38.554757 38.662639 38.768381 38.872146 38.973209 39.071713 39.166974
39.259119 39.347510 39.432259 39.512779 39.589170 39.660903 39.728061 39.790183
39.847338 39.899132 39.945623 39.986489 40.021775 40.051237 40.074906 40.092618
40.104391 40.110142 40.109877 40.103595 40.091288 40.073039 40.048827 40.018814
39.982968 39.941531 39.894457 39.842066 39.784299 39.721548 39.653742 39.581341
39.504262 39.423030 39.337546 39.248395 39.155463 39.059388 38.960041 38.858107
38.753440 38.646764 38.537917 38.427656 38.315800 38.203132 38.089452 37.975561
37.861240 37.747302 37.633506 37.520669 37.408531 37.297906 37.188514 37.081158
36.975540 36.872446 36.771559 36.673645 36.578368 36.486467 36.397590 36.312445
36.230664 36.152921 36.078834 36.009038 35.943139 35.881732 35.824412 35.771731
35.723278 35.679558 35.640154 35.605528 35.575256 35.549754 35.528598 35.512157
35.500007 35.492471 35.489126 35.490249 35.495424 35.504882 35.518212 35.535600
35.556646 35.581492 35.609747 35.641512 35.676407 35.714495 35.755407 35.799167
35.845424 35.894163 35.945048 35.998031 36.052794 36.109253 36.167112 36.226254
36.286403 36.347414 36.409031 36.471081 36.533333
36.911111 36.847060 36.783233 36.719883 36.657206 36.595480 36.534868 36.475675
36.418028 36.362256 36.308450 36.256961 36.207841 36.161463 36.117837 36.077353
36.039983 36.006131 35.975725 35.949186 35.926394 35.907783 35.893187 35.883050
35.877158 35.875964 35.879203 35.887335 35.900046 35.917797 35.940225 35.967792
36.000083 36.037560 36.079757 36.127132 36.179167 36.236316 36.298012 36.364698
36.435759 36.511629 36.591646 36.676232 36.764680 36.857396 36.953636 37.053787
37.157068 37.263849 37.373316 37.485819 37.600518 37.717742 37.836630 37.957489
38.079442 38.202777 38.326607 38.451198 38.575663 38.700247 38.824068 38.947351
39.069229 39.189906 39.308538 39.425309 39.539407 39.650995 39.759302 39.864473
39.965784 40.063360 40.156535 40.245416 40.329398 40.408574 40.482404 40.550968
40.613799 40.670963 40.722070 40.767171 40.805961 40.838477 40.864497 40.884047
40.896991 40.903343 40.903056 40.896129 40.882607 40.862476 40.835867 40.802755
40.763358 40.717639 40.665901 40.608091 40.544597 40.475351 40.400820 40.320921
40.236193 40.146541 40.052570 39.954170 39.852007 39.745955 39.636735 39.524203
39.409127 39.291346 39.171668 39.049911 38.926916 38.802481 38.677471 38.551662
38.425935 38.300045 38.174881 38.050175 37.926816 37.804516 37.684155 37.565423
37.449186 37.335114 37.224051 37.115647 37.010720 36.908898 36.810970 36.716547
36.626379 36.540062 36.458306 36.380692 36.307887 36.239461 36.176033 36.117162
36.063423 36.014365 35.970511 35.931408 35.897529 35.868415 35.844490 35.825293
35.811199 35.801748 35.797263 35.797289 35.802100 35.811246 35.824952 35.842776
35.864895 35.890879 35.920857 35.954411 35.991627 36.032099 36.075870 36.122550
36.172142 36.224271 36.278901 36.335677 36.394525 36.455110 36.517323 36.580851
36.645549 36.711130 36.777416 36.844146 36.911111
37.288889 37.220498 37.152366 37.084722 37.017854 36.951956 36.887347 36.824182
36.762808 36.703342 36.646155 36.591324 36.539241 36.489943 36.443843 36.400932
36.361641 36.325918 36.294209 36.266412 36.242990 36.223792 36.209292 36.199287
36.194261 36.193959 36.198874 36.208695 36.223921 36.244186 36.269991 36.300917
36.337463 36.379155 36.426489 36.478935 36.536985 36.600055 36.668627 36.742065
36.820841 36.904265 36.992798 37.085702 37.183420 37.285169 37.391375 37.501213
37.615088 37.732138 37.852749 37.976025 38.102329 38.230738 38.361594 38.493954
38.628133 38.763178 38.899381 39.035781 39.172647 39.309021 39.445149 39.580086
39.714053 39.846126 39.976505 40.104294 40.229671 40.351781 40.470782 40.585863
40.697164 40.803930 40.906283 41.003532 41.095779 41.182405 41.263497 41.338510
41.407517 41.470056 41.526185 41.575527 41.618128 41.653702 41.682280 41.703670
41.717890 41.724843 41.724534 41.716963 41.702121 41.680105 41.650893 41.614677
41.571424 41.521416 41.464607 41.401373 41.331652 41.255905 41.174058 41.086654
40.993603 40.895526 40.792315 40.684662 40.572444 40.456414 40.336431 40.213304
40.086874 39.957996 39.826492 39.693256 39.558087 39.421909 39.284501 39.146807
39.008582 38.870784 38.733144 38.596624 38.460930 38.327020 38.194576 38.064545
37.936584 37.811621 37.689291 37.570494 37.454846 37.343212 37.235187 37.131603
37.032033 36.937267 36.846862 36.761562 36.680910 36.605600 36.535164 36.470244
36.410361 36.356106 36.306991 36.263553 36.225300 36.192714 36.165299 36.143484
36.126773 36.115539 36.109288 36.108341 36.112209 36.121157 36.134706 36.153069
36.175774 36.202987 36.234245 36.269665 36.308799 36.351717 36.397986 36.447630
36.500234 36.555779 36.613870 36.674445 36.737130 36.801825 36.868179 36.936052
37.005119 37.075206 37.146012 37.217330 37.288889
37.666667 37.594072 37.521740 37.449969 37.378986 37.309120 37.240560 37.173666
37.108585 37.045705 36.985133 36.927279 36.872207 36.820352 36.771730 36.726796
36.685520 36.648375 36.615279 36.586723 36.562573 36.543333 36.528816 36.519537
36.515253 36.516490 36.522946 36.535152 36.552752 36.576278 36.605315 36.640397
36.681048 36.727802 36.780121 36.838536 36.902450 36.972386 37.047688 37.128869
37.215216 37.307229 37.404142 37.506437 37.613297 37.725187 37.841242 37.961904
38.086267 38.214751 38.346410 38.481641 38.619466 38.760256 38.903009 39.048070
39.194417 39.342370 39.490897 39.640291 39.789521 39.938852 40.087260 40.234988
40.381026 40.525593 40.667708 40.807564 40.944219 41.077843 41.207538 41.333456
41.454753 41.571562 41.683103 41.789489 41.890012 41.984771 42.073135 42.155185
42.230379 42.298782 42.359942 42.413910 42.460329 42.499239 42.530380 42.553777
42.569275 42.576885 42.576554 42.568282 42.552118 42.528050 42.496231 42.456634
42.409516 42.354835 42.292948 42.223800 42.147842 42.065005 41.975833 41.880241
41.778857 41.671583 41.559124 41.441365 41.319085 41.192150 41.061402 40.926689
40.788908 40.647884 40.504564 40.358750 40.211425 40.062368 39.912589 39.761844
39.611159 39.460266 39.310200 39.160666 39.012698 38.865975 38.721523 38.578994
38.439396 38.302357 38.168857 38.038502 37.912241 37.789654 37.671654 37.557798
37.448956 37.344666 37.245751 37.151730 37.063375 36.980191 36.902895 36.830979
36.765106 36.704755 36.650532 36.601911 36.559437 36.522580 36.491826 36.466644
36.447461 36.433746 36.425869 36.423301 36.426355 36.434509 36.448020 36.466373
36.489771 36.517711 36.550341 36.587173 36.628302 36.673256 36.722081 36.774322
36.829979 36.888615 36.950185 37.014273 37.080792 37.149349 37.219814 37.291822
37.365203 37.439620 37.514863 37.590627 37.666667
38.044444 37.967773 37.891403 37.815600 37.740701 37.666930 37.594657 37.524066
37.455557 37.389270 37.325632 37.264738 37.207041 37.152587 37.101853 37.054834
37.012029 36.973380 36.939404 36.909989 36.885668 36.866272 36.852347 36.843666
36.840787 36.843422 36.852135 36.866579 36.887323 36.913955 36.947049 36.986127
37.031763 37.083417 37.141656 37.205878 37.276642 37.353283 37.436352 37.525119
37.620123 37.720575 37.826996 37.938541 38.055714 38.177613 38.304721 38.436089
38.572175 38.711985 38.855952 39.003044 39.153668 39.306759 39.462695 39.620390
39.780192 39.940999 40.103131 40.265480 40.428336 40.590595 40.752520 40.913019
41.072329 41.229381 41.384385 41.536308 41.685337 41.830479 41.971901 42.108665
42.240916 42.367779 42.489380 42.604918 42.714500 42.817405 42.913725 43.002827