# vtk DataFile Version 3.0
Steady-state temperature (Jacobi)
ASCII
DATASET STRUCTURED_POINTS
DIMENSIONS 181 181 1
ORIGIN 0.0 0.0 0.0
SPACING 0.05 0.05 1.0
POINT_DATA 32761
SCALARS Temperature float 1
LOOKUP_TABLE default
32.000000 32.000000 32.000000 32.000000 32.000000 32.000000 32.000000 32.000000
32.000000 32.000000 32.000000 32.000000 32.000000 32.000000 32.000000 32.000000
32.000000 32.000000 32.000000 32.000000 32.000000 32.000000 32.000000 32.000000
32.000000 32.000000 32.000000 32.000000 32.000000 32.000000 32.000000 32.000000
32.000000 32.000000 32.000000 32.000000 32.000000 32.000000 32.000000 32.000000
32.000000 32.000000 32.000000 32.000000 32.000000 32.000000 32.000000 32.000000
32.000000 32.000000 32.000000 32.000000 32.000000 32.000000 32.000000 32.000000
32.000000 32.000000 32.000000 32.000000 32.000000 32.000000 32.000000 32.000000
32.000000 32.000000 32.000000 32.000000 32.000000 32.000000 32.000000 32.000000
32.000000 32.000000 32.000000 32.000000 32.000000 32.000000 32.000000 32.000000
32.000000 32.000000 32.000000 32.000000 32.000000 32.000000 32.000000 32.000000
32.000000 32.000000 32.000000 32.000000 32.000000 32.000000 32.000000 32.000000
32.000000 32.000000 32.000000 32.000000 32.000000 32.000000 32.000000 32.000000
32.000000 32.000000 32.000000 32.000000 32.000000 32.000000 32.000000 32.000000
32.000000 32.000000 32.000000 32.000000 32.000000 32.000000 32.000000 32.000000
32.000000 32.000000 32.000000 32.000000 32.000000 32.000000 32.000000 32.000000
32.000000 32.000000 32.000000 32.000000 32.000000 32.000000 32.000000 32.000000
32.000000 32.000000 32.000000 32.000000 32.000000 32.000000 32.000000 32.000000
32.000000 32.000000 32.000000 32.000000 32.000000 32.000000 32.000000 32.000000
32.000000 32.000000 32.000000 32.000000 32.000000 32.000000 32.000000 32.000000
32.000000 32.000000 32.000000 32.000000 32.000000 32.000000 32.000000 32.000000
32.000000 32.000000 32.000000 32.000000 32.000000 32.000000 32.000000 32.000000
32.000000 32.000000 32.000000 32.000000 32.000000
32.377778 32.396118 32.414461 32.432808 32.451163 32.469528 32.487905 32.506296
32.524704 32.543130 32.561576 32.580045 32.598537 32.617054 32.635598 32.654169
32.672767 32.691394 32.710050 32.728735 32.747448 32.766189 32.784956 32.803750
32.822566 32.841405 32.860264 32.879139 32.898028 32.916927 32.935831 32.954738
32.973642 32.992537 33.011417 33.030278 33.049111 33.067910 33.086667 33.105375
33.124023 33.142605 33.161110 33.179528 33.197848 33.216061 33.234155 33.252118
33.269938 33.287604 33.305101 33.322417 33.339539 33.356453 33.373144 33.389600
33.405805 33.421744 33.437403 33.452768 33.467823 33.482553 33.496943 33.510979
33.524646 33.537929 33.550812 33.563284 33.575327 33.586931 33.598080 33.608761
33.618962 33.628672 33.637876 33.646565 33.654728 33.662354 33.669434 33.675959
33.681921 33.687311 33.692123 33.696352 33.699990 33.703034 33.705480 33.707325
33.708565 33.709201 33.709230 33.708653 33.707471 33.705686 33.703299 33.700315
33.696737 33.692571 33.687821 33.682494 33.676597 33.670138 33.663126 33.655568
33.647476 33.638860 33.629729 33.620097 33.609974 33.599373 33.588308 33.576790
33.564834 33.552454 33.539664 33.526479 33.512912 33.498979 33.484696 33.470075
33.455134 33.439887 33.424349 33.408534 33.392458 33.376135 33.359581 33.342808
33.325832 33.308666 33.291323 33.273817 33.256162 33.238367 33.220448 33.202413
33.184277 33.166048 33.147738 33.129356 33.110912 33.092416 33.073875 33.055297
33.036692 33.018064 32.999423 32.980772 32.962119 32.943469 32.924826 32.906195
32.887580 32.868985 32.850413 32.831865 32.813346 32.794856 32.776398 32.757973
32.739581 32.721223 32.702900 32.684611 32.666356 32.648134 32.629946 32.611788
32.593661 32.575563 32.557491 32.539445 32.521421 32.503419 32.485435 32.467467
32.449513 32.431569 32.413634 32.395705 32.377778
32.755556 32.792237 32.828924 32.865621 32.902333 32.939064 32.975820 33.012604
33.049421 33.086275 33.123170 33.160109 33.197096 33.234133 33.271223 33.308368
33.345568 33.382826 33.420142 33.457514 33.494945 33.532430 33.569970 33.607561
33.645201 33.682884 33.720607 33.758363 33.796147 33.833951 33.871769 33.909589
33.947405 33.985202 34.022973 34.060702 34.098379 34.135986 34.173511 34.210936
34.248245 34.285419 34.322441 34.359288 34.395943 34.432381 34.468582 34.504522
34.540176 34.575520 34.610530 34.645177 34.679436 34.713278 34.746677 34.779602
34.812028 34.843922 34.875257 34.906001 34.936126 34.965602 34.994399 35.022485
35.049834 35.076414 35.102197 35.127153 35.151256 35.174476 35.196787 35.218163
35.238579 35.258008 35.276429 35.293818 35.310154 35.325416 35.339586 35.352644
35.364575 35.375362 35.384994 35.393455 35.400737 35.406830 35.411725 35.415416
35.417899 35.419170 35.419229 35.418075 35.415709 35.412136 35.407360 35.401387
35.394227 35.385888 35.376382 35.365721 35.353919 35.340993 35.326959 35.311835
35.295640 35.278396 35.260123 35.240847 35.220588 35.199374 35.177229 35.154180
35.130254 35.105480 35.079885 35.053499 35.026351 34.998470 34.969887 34.940631
34.910733 34.880223 34.849130 34.817485 34.785318 34.752658 34.719533 34.685973
34.652005 34.617659 34.582959 34.547934 34.512607 34.477006 34.441153 34.405072
34.368786 34.332317 34.295684 34.258910 34.222011 34.185007 34.147914 34.110751
34.073529 34.036266 33.998973 33.961664 33.924350 33.887042 33.849749 33.812481
33.775245 33.738048 33.700897 33.663798 33.626754 33.589770 33.552849 33.515994
33.479206 33.442487 33.405836 33.369255 33.332742 33.296296 33.259916 33.223599
33.187342 33.151143 33.114998 33.078903 33.042854 33.006848 32.970878 32.934941
32.899031 32.863143 32.827271 32.791411 32.755556
33.133333 33.188360 33.243394 33.298444 33.353515 33.408616 33.463754 33.518935
33.574165 33.629452 33.684799 33.740214 33.795700 33.851263 33.906904 33.962628
34.018437 34.074332 34.130314 34.186383 34.242538 34.298778 34.355099 34.411498
34.467970 34.524509 34.581107 34.637757 34.694449 34.751174 34.807917 34.864667
34.921409 34.978127 35.034804 35.091422 35.147958 35.204395 35.260707 35.316872
35.372862 35.428653 35.484214 35.539517 35.594528 35.649219 35.703552 35.757496
35.811012 35.864064 35.916613 35.968621 36.020045 36.070847 36.120982 36.170411
36.219086 36.266967 36.314007 36.360164 36.405391 36.449644 36.492876 36.535046
36.576106 36.616014 36.654725 36.692196 36.728385 36.763250 36.796750 36.828847
36.859501 36.888676 36.916336 36.942448 36.966977 36.989895 37.011171 37.030780
37.048695 37.064895 37.079357 37.092064 37.102999 37.112147 37.119498 37.125041
37.128769 37.130679 37.130766 37.129033 37.125480 37.120114 37.112942 37.103973
37.093221 37.080698 37.066423 37.050414 37.032693 37.013282 36.992208 36.969497
36.945179 36.919285 36.891848 36.862902 36.832484 36.800629 36.767379 36.732770
36.696847 36.659649 36.621220 36.581603 36.540843 36.498983 36.456070 36.412146
36.367261 36.321455 36.274778 36.227271 36.178982 36.129952 36.080228 36.029850
35.978862 35.927305 35.875220 35.822646 35.769623 35.716186 35.662374 35.608220
35.553760 35.499025 35.444048 35.388857 35.333482 35.277949 35.222286 35.166514
35.110659 35.054741 34.998781 34.942796 34.886806 34.830824 34.774868 34.718947
34.663078 34.607267 34.551527 34.495863 34.440285 34.384796 34.329404 34.274110
34.218919 34.163830 34.108846 34.053966 33.999189 33.944512 33.889935 33.835453
33.781062 33.726758 33.672535 33.618388 33.564311 33.510297 33.456339 33.402429
33.348560 33.294724 33.240913 33.187119 33.133333
33.511111 33.584487 33.657874 33.731280 33.804716 33.878192 33.951717 34.025300
34.098950 34.172674 34.246482 34.320378 34.394372 34.468466 34.542668 34.616980
34.691407 34.765948 34.840608 34.915384 34.990278 35.065283 35.140400 35.215621
35.290941 35.366351 35.441843 35.517405 35.593025 35.668688 35.744381 35.820082
35.895775 35.971437 36.047048 36.122579 36.198007 36.273301 36.348433 36.423367
36.498074 36.572513 36.646650 36.720442 36.793851 36.866830 36.939338 37.011324
37.082744 37.153545 37.223679 37.293089 37.361726 37.429531 37.496451 37.562425
37.627400 37.691312 37.754107 37.815721 37.876097 37.935173 37.992890 38.049187
38.104006 38.157286 38.208970 38.258998 38.307317 38.353867 38.398598 38.441454
38.482385 38.521341 38.558276 38.593141 38.625897 38.656499 38.684910 38.711094
38.735018 38.756650 38.775963 38.792931 38.807533 38.819750 38.829566 38.836968
38.841947 38.844496 38.844613 38.842297 38.837553 38.830387 38.820809 38.808832
38.794472 38.777750 38.758687 38.737309 38.713644 38.687724 38.659581 38.629255
38.596782 38.562206 38.525569 38.486918 38.446301 38.403768 38.359370 38.313162
38.265197 38.215533 38.164224 38.111332 38.056913 38.001029 37.943738 37.885102
37.825180 37.764034 37.701723 37.638310 37.573850 37.508407 37.442035 37.374795
37.306741 37.237931 37.168416 37.098253 37.027489 36.956178 36.884366 36.812102
36.739429 36.666394 36.593035 36.519395 36.445509 36.371417 36.297150 36.222743
36.148225 36.073626 35.998971 35.924287 35.849595 35.774920 35.700276 35.625685
35.551161 35.476719 35.402370 35.328128 35.253998 35.179993 35.106114 35.032370
34.958761 34.885293 34.811964 34.738775 34.665724 34.592810 34.520027 34.447373
34.374841 34.302426 34.230119 34.157914 34.085803 34.013776 33.941824 33.869937
33.798105 33.726318 33.654563 33.582832 33.511111
33.888889 33.980621 34.072365 34.164135 34.255942 34.347800 34.439718 34.531711
34.623787 34.715958 34.808232 34.900621 34.993130 35.085768 35.178540 35.271453
35.364508 35.457712 35.551062 35.644562 35.738207 35.831998 35.925927 36.019991
36.114179 36.208483 36.302891 36.397390 36.491962 36.586594 36.681261 36.775946
36.870620 36.965262 37.059838 37.154322 37.248676 37.342868 37.436858 37.530608
37.624071 37.717207 37.809965 37.902298 37.994150 38.085473 38.176204 38.266291
38.355668 38.444277 38.532049 38.618925 38.704830 38.789701 38.873463 38.956049
39.037381 39.117391 39.196000 39.273137 39.348723 39.422687 39.494948 39.565437
39.634073 39.700787 39.765502 39.828148 39.888651 39.946945 40.002958 40.056627
40.107885 40.156672 40.202925 40.246591 40.287612 40.325939 40.361521 40.394316
40.424278 40.451371 40.475559 40.496812 40.515100 40.530402 40.542696 40.551966
40.558202 40.561395 40.561541 40.558640 40.552698 40.543721 40.531725 40.516723
40.498738 40.477792 40.453916 40.427140 40.397501 40.365036 40.329790 40.291808
40.251139 40.207835 40.161953 40.113548 40.062683 40.009418 39.953820 39.895955
39.835893 39.773702 39.709457 39.643227 39.575090 39.505118 39.433389 39.359975
39.284956 39.208405 39.130400 39.051014 38.970325 38.888403 38.805326 38.721161
38.635984 38.549859 38.462859 38.375047 38.286491 38.197249 38.107387 38.016958
37.926026 37.834638 37.742853 37.650716 37.558278 37.465581 37.372673 37.279589
37.186372 37.093053 36.999672 36.906253 36.812831 36.719428 36.626071 36.532780
36.439578 36.346478 36.253501 36.160655 36.067957 35.975411 35.883030 35.790817
35.698778 35.606913 35.515226 35.423715 35.332379 35.241214 35.150217 35.059379
34.968698 34.878161 34.787764 34.697493 34.607341 34.517295 34.427343 34.337473
34.247672 34.157927 34.068224 33.978549 33.888889
34.266667 34.376761 34.486872 34.597012 34.707199 34.817445 34.927767 35.038177
35.148690 35.259316 35.370070 35.480959 35.591997 35.703190 35.814548 35.926074
36.037776 36.149655 36.261716 36.373956 36.486376 36.598971 36.711737 36.824665
36.937749 37.050973 37.164327 37.277791 37.391351 37.504982 37.618663 37.732365
37.846064 37.959722 38.073311 38.186788 38.300119 38.413256 38.526158 38.638772
38.751052 38.862938 38.974379 39.085309 39.195673 39.305398 39.414424 39.522674
39.630081 39.736564 39.842053 39.946462 40.049715 40.151723 40.252408 40.351678
40.449451 40.545632 40.640138 40.732873 40.823752 40.912678 40.999565 41.084319
41.166853 41.247074 41.324897 41.400231 41.472993 41.543097 41.610463 41.675008
41.736658 41.795334 41.850967 41.903486 41.952827 41.998927 42.041727 42.081173
42.117214 42.149804 42.178900 42.204464 42.226463 42.244869 42.259657 42.270809
42.278309 42.282149 42.282324 42.278835 42.271686 42.260888 42.246455 42.228409
42.206773 42.181577 42.152855 42.120646 42.084992 42.045942 42.003545 41.957859
41.908941 41.856856 41.801668 41.743449 41.682270 41.618210 41.551342 41.481752
41.409519 41.334731 41.257471 41.177832 41.095897 41.011762 40.925513 40.837247
40.747049 40.655017 40.561236 40.465803 40.368802 40.270329 40.170465 40.069303
39.966924 39.863416 39.758855 39.653327 39.546904 39.439668 39.331685 39.223033
39.113773 39.003977 38.893703 38.783015 38.671966 38.560616 38.449011 38.337204
38.225237 38.113159 38.001003 37.888812 37.776616 37.664452 37.552344 37.440322
37.328406 37.216622 37.104983 36.993511 36.882214 36.771109 36.660200 36.549498
36.439006 36.328729 36.218665 36.108817 35.999179 35.889751 35.780524 35.671493
35.562649 35.453983 35.345482 35.237138 35.128935 35.020862 34.912902 34.805042
34.697265 34.589556 34.481898 34.374274 34.266667
34.644444 34.772911 34.901395 35.029916 35.158491 35.287137 35.415871 35.544710
35.673669 35.802764 35.932007 36.061413 36.190992 36.320756 36.450713 36.580872
36.711236 36.841814 36.972603 37.103608 37.234824 37.366251 37.497879 37.629704
37.761710 37.893890 38.026221 38.158691 38.291273 38.423947 38.556681 38.689450
38.822215 38.954944 39.087593 39.220123 39.352482 39.484627 39.616498 39.748045
39.879201 40.009911 40.140100 40.269707 40.398651 40.526862 40.654256 40.780756
40.906271 41.030720 41.154006 41.276042 41.396727 41.515969 41.633664 41.749717
41.864018 41.976471 42.086963 42.195396 42.301657 42.405644 42.507247 42.606364
42.702884 42.796707 42.887724 42.975837 43.060942 43.142943 43.221740 43.297244
43.369358 43.438000 43.503080 43.564522 43.622244 43.676178 43.726250 43.772400
43.814566 43.852696 43.886737 43.916647 43.942386 43.963921 43.981223 43.994270
44.003046 44.007538 44.007742 44.003658 43.995293 43.982657 43.965770 43.944654
43.919339 43.889858 43.856253 43.818567 43.776853 43.731163 43.681561 43.628110
43.570881 43.509945 43.445384 43.377276 43.305710 43.230771 43.152556 43.071153
42.986666 42.899190 42.808829 42.715684 42.619864 42.521468 42.420611 42.317392
42.211925 42.104311 41.994664 41.883085 41.769684 41.654560 41.537823 41.419569
41.299903 41.178917 41.056713 40.933379 40.809012 40.683694 40.557517 40.430557
40.302901 40.174619 40.045790 39.916478 39.786757 39.656684 39.526326 39.395733
39.264966 39.134067 39.003090 38.872073 38.741062 38.610087 38.479188 38.348391
38.217728 38.087218 37.956888 37.826752 37.696831 37.567133 37.437673 37.308455
37.179489 37.050774 36.922315 36.794108 36.666154 36.538443 36.410973 36.283732
36.156713 36.029903 35.903290 35.776859 35.650597 35.524486 35.398510 35.272650
35.146890 35.021208 34.895587 34.770005 34.644444
35.022222 35.169070 35.315940 35.462850 35.609824 35.756880 35.904038 36.051317
36.198736 36.346311 36.494060 36.641996 36.790134 36.938485 37.087062 37.235870
37.384922 37.534216 37.683762 37.833555 37.983598 38.133883 38.284407 38.435158
38.586127 38.737295 38.888648 39.040161 39.191814 39.343574 39.495416 39.647299
39.799190 39.951043 40.102817 40.254457 40.405917 40.557132 40.708049 40.858597
41.008714 41.158320 41.307347 41.455708 41.603326 41.750108 41.895969 42.040808
42.184535 42.327042 42.468232 42.607993 42.746221 42.882798 43.017617 43.150555
43.281501 43.410329 43.536925 43.661161 43.782921 43.902076 44.018510 44.132094
44.242713 44.350240 44.454561 44.555552 44.653104 44.747097 44.837426 44.923977
45.006650 45.085339 45.159952 45.230392 45.296572 45.358406 45.415818 45.468731
45.517079 45.560797 45.599830 45.634125 45.663638 45.688330 45.708170 45.723129
45.733191 45.738341 45.738574 45.733890 45.724296 45.709807 45.690441 45.666228
45.637198 45.603394 45.564858 45.521647 45.473814 45.421428 45.364554 45.303270
45.237652 45.167791 45.093771 45.015691 44.933645 44.847739 44.758074 44.664766
44.567919 44.467655 44.364084 44.257331 44.147511 44.034751 43.919168 43.800891
43.680038 43.556738 43.431109 43.303278 43.173360 43.041484 42.907759 42.772311
42.635247 42.496687 42.356732 42.215499 42.073084 41.929596 41.785125 41.639774
41.493627 41.346778 41.199306 41.051297 40.902821 40.753958 40.604769 40.455327
40.305686 40.155911 40.006047 39.856152 39.706263 39.556431 39.406687 39.257073
39.107612 38.958340 38.809274 38.660442 38.511856 38.363537 38.215490 38.067731
37.920259 37.773085 37.626204 37.479620 37.333324 37.187315 37.041581 36.896116
36.750905 36.605938 36.461197 36.316669 36.172334 36.028175 35.884171 35.740303
35.596549 35.452886 35.309293 35.165746 35.022222
35.400000 35.565241 35.730506 35.895819 36.061202 36.226681 36.392275 36.558009
36.723901 36.889973 37.056241 37.222725 37.389438 37.556398 37.723613 37.891097
38.058854 38.226896 38.395221 38.563835 38.732732 38.901913 39.071365 39.241084
39.411051 39.581256 39.751671 39.922281 40.093050 40.263956 40.434955 40.606017
40.777092 40.948139 41.119101 41.289930 41.460558 41.630929 41.800967 41.970608
42.139766 42.308367 42.476319 42.643539 42.809925 42.975387 43.139814 43.303108
43.465151 43.625838 43.785043 43.942653 44.098538 44.252579 44.404639 44.554594
44.702304 44.847641 44.990462 45.130635 45.268015 45.402471 45.533857 45.662040
45.786877 45.908236 46.025977 46.139971 46.250081 46.356184 46.458149 46.555859
46.649189 46.738030 46.822266 46.901797 46.976517 47.046335 47.111158 47.170906
47.225497 47.274864 47.318938 47.357665 47.390991 47.418874 47.441276 47.458169
47.469530 47.475345 47.475607 47.470316 47.459480 47.443116 47.421246 47.393901
47.361118 47.322943 47.279428 47.230630 47.176619 47.117463 47.053244 46.984044
46.909957 46.831076 46.747506 46.659350 46.566725 46.469740 46.368522 46.263188
46.153871 46.040694 45.923797 45.803308 45.679370 45.552113 45.421685 45.288216
45.151856 45.012735 44.871001 44.726785 44.580232 44.431470 44.280642 44.127870
43.973295 43.817034 43.659220 43.499965 43.339398 43.177622 43.014759 42.850906
42.686175 42.520656 42.354453 42.187648 42.020336 41.852590 41.684496 41.516120
41.347538 41.178807 41.009994 40.841148 40.672327 40.503572 40.334933 40.166441
39.998138 39.830049 39.662209 39.494632 39.327347 39.160363 38.993700 38.827360
38.661358 38.495691 38.330365 38.165373 38.000717 37.836384 37.672369 37.508658
37.345240 37.182098 37.019216 36.856575 36.694156 36.531936 36.369894 36.208005
36.046247 35.884593 35.723018 35.561496 35.400000
35.777778 35.961424 36.145097 36.328823 36.512631 36.696544 36.880590 37.064791
37.249173 37.433756 37.618563 37.803612 37.988923 38.174510 38.360389 38.546569
38.733064 38.919876 39.107015 39.294478 39.482269 39.670378 39.858803 40.047527
40.236543 40.425826 40.615360 40.805113 40.995063 41.185167 41.375394 41.565695
41.756031 41.946339 42.136574 42.326664 42.516553 42.706160 42.895419 43.084239
43.272545 43.460236 43.647227 43.833408 44.018683 44.202933 44.386054 44.567919
44.748412 44.927399 45.104757 45.280344 45.454029 45.625664 45.795112 45.962219
46.126843 46.288825 46.448022 46.604270 46.757422 46.907316 47.053803 47.196722
47.335923 47.471248 47.602552 47.729677 47.852483 47.970819 48.084551 48.193535
48.297644 48.396743 48.490715 48.579435 48.662795 48.740685 48.813007 48.879665
48.940574 48.995652 49.044829 49.088037 49.125222 49.156332 49.181328 49.200176
49.212851 49.219338 49.219629 49.213723 49.201631 49.183370 49.158965 49.128451
49.091870 49.049273 49.000717 48.946271 48.886005 48.820004 48.748352 48.671148
48.588491 48.500492 48.407261 48.308922 48.205596 48.097416 47.984513 47.867031
47.745105 47.618888 47.488522 47.354163 47.215959 47.074070 46.928645 46.779848
46.627828 46.472749 46.314759 46.154022 45.990682 45.824902 45.656821 45.486597
45.314365 45.140278 44.964464 44.787068 44.608214 44.428037 44.246652 44.064189
43.880752 43.696461 43.511413 43.325718 43.139462 42.952747 42.765648 42.578258
42.390642 42.202882 42.015035 41.827172 41.639342 41.451604 41.263998 41.076576
40.889368 40.702416 40.515743 40.329381 40.143345 39.957661 39.772335 39.587385
39.402812 39.218625 39.034819 38.851398 38.668350 38.485673 38.303351 38.121377
37.939730 37.758397 37.577356 37.396588 37.216068 37.035775 36.855681 36.675761
36.495987 36.316331 36.136763 35.957256 35.777778
36.155556 36.357619 36.559713 36.761868 36.964111 37.166475 37.368985 37.571671
37.774558 37.977672 38.181035 38.384672 38.588599 38.792839 38.997404 39.202311
39.407567 39.613187 39.819168 40.025521 40.232238 40.439321 40.646756 40.854539
41.062646 41.271067 41.479769 41.688732 41.897917 42.107293 42.316812 42.526433
42.736098 42.945758 43.155342 43.364792 43.574026 43.782976 43.991548 44.199663
44.407218 44.614122 44.820261 45.025533 45.229814 45.432992 45.634932 45.835512
46.034587 46.232027 46.427676 46.621397 46.813026 47.002418 47.189402 47.373826
47.555515 47.734312 47.910037 48.082530 48.251608 48.417109 48.578851 48.736671
48.890389 49.039842 49.184855 49.325268 49.460911 49.591630 49.717263 49.837663
49.952676 50.062164 50.165986 50.264014 50.356118 50.442185 50.522099 50.595758
50.663063 50.723928 50.778271 50.826021 50.867112 50.901492 50.929114 50.949943
50.963949 50.971117 50.971436 50.964907 50.951541 50.931357 50.904384 50.870659
50.830231 50.783153 50.729492 50.669321 50.602722 50.529784 50.450608 50.365295
50.273963 50.176727 50.073719 49.965066 49.850913 49.731398 49.606677 49.476896
49.342220 49.202805 49.058822 48.910431 48.757810 48.601122 48.440548 48.276253
48.108419 47.937212 47.762813 47.585386 47.405109 47.222142 47.036662 46.848821
46.658790 46.466718 46.272767 46.077077 45.879804 45.681079 45.481050 45.279837
45.077577 44.874383 44.670381 44.465672 44.260372 44.054571 43.848375 43.641863
43.435130 43.228242 43.021285 42.814315 42.607405 42.400603 42.193970 41.987543
41.781375 41.575493 41.369939 41.164731 40.959903 40.755465 40.551441 40.347833
40.144657 39.941909 39.739596 39.537708 39.336246 39.135195 38.934547 38.734282
38.534389 38.334843 38.135627 37.936714 37.738080 37.539697 37.341539 37.143574
36.945772 36.748102 36.550531 36.353027 36.155556
36.533333 36.753828 36.974357 37.194953 37.415649 37.636476 37.857468 38.078654
38.300065 38.521727 38.743668 38.965911 39.188482 39.411396 39.634678 39.858336
40.082390 40.306844 40.531710 40.756985 40.982676 41.208771 41.435271 41.662155
41.889415 42.117023 42.344962 42.573192 42.801689 43.030402 43.259295 43.488310
43.717398 43.946490 44.175526 44.404425 44.633116 44.861506 45.089513 45.317030
45.543964 45.770197 45.995623 46.220112 46.443548 46.665787 46.886702 47.106139
47.323960 47.540001 47.754114 47.966124 48.175874 48.383184 48.587886 48.789794
48.988734 49.184513 49.376955 49.565862 49.751054 49.932332 50.109516 50.282406
50.450822 50.614569 50.773469 50.927330 51.075981 51.219236 51.356931 51.488891
51.614959 51.734970 51.848781 51.956239 52.057212 52.151565 52.239178 52.319933
52.393727 52.460458 52.520042 52.572395 52.617450 52.655146 52.685432 52.708269
52.723625 52.731482 52.731829 52.724669 52.710010 52.687875 52.658296 52.621314
52.576981 52.525359 52.466519 52.400543 52.327519 52.247550 52.160740 52.067209
51.967077 51.860483 51.747558 51.628458 51.503327 51.372331 51.235629 51.093397
50.945801 50.793027 50.635250 50.472661 50.305440 50.133784 49.957874 49.777910
49.594075 49.406570 49.215574 49.021288 48.823887 48.623569 48.420506 48.214888
48.006880 47.796668 47.584407 47.370274 47.154418 46.937005 46.718172 46.498077
46.276845 46.054623 45.831527 45.607688 45.383213 45.158221 44.932805 44.707075
44.481110 44.255008 44.028836 43.802680 43.576596 43.350658 43.124911 42.899417
42.674211 42.449343 42.224838 42.000736 41.777054 41.553820 41.331042 41.108740
40.886913 40.665572 40.444711 40.224331 40.004418 39.784969 39.565963 39.347389
39.129223 38.911447 38.694034 38.476960 38.260194 38.043708 37.827470 37.611447
37.395604 37.179908 36.964322 36.748809 36.533333
36.911111 37.150052 37.389029 37.628081 37.867243 38.106552 38.346040 38.585746
38.825697 39.065929 39.306467 39.547342 39.788576 40.030197 40.272218 40.514664
40.757544 41.000874 41.244656 41.488901 41.733603 41.978766 42.224373 42.470421
42.716884 42.963750 43.210982 43.458559 43.706432 43.954569 44.202912 44.451417
44.700011 44.948641 45.197222 45.445686 45.693936 45.941893 46.189446 46.436502
46.682938 46.928646 47.173492 47.417355 47.660086 47.901553 48.141593 48.380064
48.616790 48.851617 49.084359 49.314850 49.542896 49.768321 49.990921 50.210514
50.426889 50.639856 50.849201 51.054729 51.256222 51.453484 51.646295 51.834459
52.017758 52.195997 52.368963 52.536464 52.698295 52.854270 53.004192 53.147883
53.285159 53.415854 53.539794 53.656827 53.766797 53.869564 53.964989 54.052951
54.133329 54.206019 54.270921 54.327951 54.377029 54.418092 54.451083 54.475959
54.492686 54.501242 54.501618 54.493814 54.477842 54.453725 54.421499 54.381208
54.332911 54.276672 54.212574 54.140701 54.061156 53.974044 53.879488 53.777609
53.668551 53.552451 53.429470 53.299762 53.163499 53.020851 52.872004 52.717136
52.556447 52.390123 52.218372 52.041386 51.859381 51.672553 51.481120 51.285282
51.085258 50.881247 50.673468 50.462117 50.247410 50.029538 49.808713 49.585119
49.358961 49.130415 48.899679 48.666918 48.432320 48.196041 47.958256 47.719109
47.478766 47.237358 46.995036 46.751920 46.508148 46.263827 46.019081 45.774004
45.528707 45.283271 45.037794 44.792344 44.547005 44.301832 44.056899 43.812249
43.567941 43.324007 43.080496 42.837429 42.594844 42.352751 42.111177 41.870125
41.629611 41.389630 41.150188 40.911273 40.672884 40.435001 40.197615 39.960701
39.724243 39.488212 39.252585 39.017328 38.782415 38.547809 38.313477 38.079381
37.845485 37.611750 37.378136 37.144603 36.911111
37.288889 37.546289 37.803731 38.061253 38.318897 38.576702 38.834706 39.092946
39.351460 39.610279 39.869439 40.128967 40.388895 40.649244 40.910041 41.171302
41.433047 41.695285 41.958031 42.221284 42.485052 42.749324 43.014102 43.279363
43.545101 43.811281 44.077887 44.344875 44.612215 44.879851 45.147742 45.415820
45.684031 45.952292 46.220538 46.488672 46.756613 47.024252 47.291495 47.558216
47.824307 48.089628 48.354059 48.617443 48.879646 49.140499 49.399852 49.657524
49.913352 50.167142 50.418719 50.667877 50.914430 51.158162 51.398879 51.636355
51.870387 52.100745 52.327218 52.549572 52.767592 52.981042 53.189705 53.393345
53.591747 53.784677 53.971923 54.153258 54.328474 54.497353 54.659696 54.815294
54.963960 55.105499 55.239736 55.366492 55.485607 55.596920 55.700289 55.795572
55.882646 55.961389 56.031701 56.093482 56.146652 56.191137 56.226878 56.253826
56.271946 56.281213 56.281617 56.273158 56.255850 56.229718 56.194798 56.151144
56.098813 56.037883 55.968435 55.890571 55.804392 55.710024 55.607589 55.497231
55.379095 55.253344 55.120139 54.979660 54.832084 54.677609 54.516422 54.348735
54.174746 53.994679 53.808739 53.617158 53.420148 53.217945 53.010765 52.798847
52.582408 52.361687 52.136899 51.908281 51.676043 51.440419 51.201613 50.959851
50.715330 50.468267 50.218848 49.967283 49.713746 49.458433 49.201507 48.943153
48.683520 48.422778 48.161065 47.898535 47.635311 47.371535 47.107314 46.842777
46.578015 46.313143 46.048238 45.783401 45.518695 45.254206 44.989987 44.726106
44.462606 44.199542 43.936944 43.674856 43.413295 43.152295 42.891862 42.632019
42.372763 42.114105 41.856036 41.598557 41.341649 41.085307 40.829506 40.574230
40.319451 40.065145 39.811279 39.557825 39.304744 39.052003 38.799560 38.547378
38.295414 38.043628 37.791974 37.540409 37.288889
37.666667 37.942542 38.218461 38.494470 38.770611 39.046929 39.323464 39.600260
39.877353 40.154784 40.432585 40.710795 40.989438 41.268550 41.548149 41.828263
42.108906 42.390098 42.671843 42.954157 43.237033 43.520477 43.804474 44.089020
44.374087 44.659663 44.945708 45.232197 45.519078 45.806313 46.093838 46.381601
46.669523 46.957540 47.245557 47.533496 47.821246 48.108715 48.395776 48.682322
48.968210 49.253317 49.537486 49.820576 50.102416 50.382851 50.661693 50.938774
51.213890 51.486860 51.757468 52.025519 52.290785 52.553059 52.812104 53.067703
53.319611 53.567602 53.811425 54.050850 54.285620 54.515502 54.740239 54.959598
55.173322 55.381180 55.582920 55.778316 55.967125 56.149125 56.324085 56.491794
56.652034 56.804607 56.949310 57.085960 57.214374 57.334387 57.445833 57.548569
57.642453 57.727360 57.803174 57.869794 57.927126 57.975095 58.013633 58.042691
58.062228 58.072219 58.072651 58.063525 58.044855 58.016670 57.979010 57.931928
57.875494 57.809784 57.734895 57.650927 57.558002 57.456243 57.345796 57.226806
57.099440 56.963864 56.820265 56.668826 56.509753 56.343245 56.169522 55.988796
55.801303 55.607263 55.406921 55.200507 54.988273 54.770453 54.547303 54.319061
54.085984 53.848307 53.606288 53.360159 53.110174 52.856557 52.599558 52.339394
52.076304 51.810496 51.542200 51.271611 50.998948 50.724394 50.448152 50.170393
49.891306 49.611045 49.329787 49.047670 48.764853 48.481461 48.197637 47.913490
47.629147 47.344701 47.060264 46.775915 46.491749 46.207830 45.924240 45.641029
45.358262 45.075978 44.794228 44.513038 44.232447 43.952468 43.673129 43.394431
43.116392 42.839004 42.562273 42.286182 42.010728 41.735886 41.461646 41.187975
40.914853 40.642245 40.370124 40.098448 39.827184 39.556288 39.285721 39.015437
38.745394 38.475542 38.205836 37.936227 37.666667
38.044444 38.338808 38.633220 38.927730 39.222385 39.517231 39.812317 40.107684
40.403379 40.699440 40.995910 41.292821 41.590213 41.888111 42.186550 42.485548
42.785132 43.085313 43.386111 43.687526 43.989570 44.292234 44.595520 44.899405
45.203883 45.508918 45.814491 46.120556 46.427078 46.733997 47.041268 47.348812
47.656570 47.964450 48.272376 48.580239 48.887950 49.195380 49.502425 49.808941
50.114804 50.419855 50.723952 51.026920 51.328601 51.628802 51.927350 52.224035
52.518668 52.811026 53.100904 53.388064 53.672291 53.953332 54.230961 54.504916
54.774960 55.040823 55.302260 55.558996 55.810781 56.057338 56.298413 56.533730
56.763036 56.986057 57.202543 57.412229 57.614871 57.810212 57.998018 58.178045
58.350073 58.513872 58.669237 58.815957 58.953846 59.082713 59.202392 59.312716