# vtk DataFile Version 3.0
Steady-state temperature (Jacobi)
ASCII
DATASET STRUCTURED_POINTS
DIMENSIONS 181 181 1
ORIGIN 0.0 0.0 0.0
SPACING 0.05 0.05 1.0
POINT_DATA 32761
SCALARS Temperature float 1
LOOKUP_TABLE default
32.000000 32.000000 32.000000 32.000000 32.000000 32.000000 32.000000 32.000000
32.000000 32.000000 32.000000 32.000000 32.000000 32.000000 32.000000 32.000000
32.000000 32.000000 32.000000 32.000000 32.000000 32.000000 32.000000 32.000000
32.000000 32.000000 32.000000 32.000000 32.000000 32.000000 32.000000 32.000000
32.000000 32.000000 32.000000 32.000000 32.000000 32.000000 32.000000 32.000000
32.000000 32.000000 32.000000 32.000000 32.000000 32.000000 32.000000 32.000000
32.000000 32.000000 32.000000 32.000000 32.000000 32.000000 32.000000 32.000000
32.000000 32.000000 32.000000 32.000000 32.000000 32.000000 32.000000 32.000000
32.000000 32.000000 32.000000 32.000000 32.000000 32.000000 32.000000 32.000000
32.000000 32.000000 32.000000 32.000000 32.000000 32.000000 32.000000 32.000000
32.000000 32.000000 32.000000 32.000000 32.000000 32.000000 32.000000 32.000000
32.000000 32.000000 32.000000 32.000000 32.000000 32.000000 32.000000 32.000000
32.000000 32.000000 32.000000 32.000000 32.000000 32.000000 32.000000 32.000000
32.000000 32.000000 32.000000 32.000000 32.000000 32.000000 32.000000 32.000000
32.000000 32.000000 32.000000 32.000000 32.000000 32.000000 32.000000 32.000000
32.000000 32.000000 32.000000 32.000000 32.000000 32.000000 32.000000 32.000000
32.000000 32.000000 32.000000 32.000000 32.000000 32.000000 32.000000 32.000000
32.000000 32.000000 32.000000 32.000000 32.000000 32.000000 32.000000 32.000000
32.000000 32.000000 32.000000 32.000000 32.000000 32.000000 32.000000 32.000000
32.000000 32.000000 32.000000 32.000000 32.000000 32.000000 32.000000 32.000000
32.000000 32.000000 32.000000 32.000000 32.000000 32.000000 32.000000 32.000000
32.000000 32.000000 32.000000 32.000000 32.000000 32.000000 32.000000 32.000000
32.000000 32.000000 32.000000 32.000000 32.000000
32.377778 32.395174 32.412574 32.429980 32.447396 32.464825 32.482270 32.499734
32.517219 32.534729 32.552266 32.569834 32.587432 32.605065 32.622734 32.640440
32.658185 32.675971 32.693797 32.711664 32.729573 32.747524 32.765515 32.783547
32.801618 32.819727 32.837870 32.856047 32.874254 32.892489 32.910746 32.929024
32.947315 32.965616 32.983920 33.002222 33.020515 33.038793 33.057046 33.075269
33.093450 33.111583 33.129656 33.147662 33.165587 33.183422 33.201155 33.218774
33.236267 33.253622 33.270824 33.287862 33.304720 33.321386 33.337843 33.354079
33.370077 33.385823 33.401302 33.416498 33.431396 33.445981 33.460236 33.474148
33.487700 33.500877 33.513663 33.526046 33.538008 33.549537 33.560618 33.571238
33.581384 33.591042 33.600201 33.608849 33.616974 33.624566 33.631615 33.638113
33.644049 33.649416 33.654208 33.658417 33.662038 33.665066 33.667496 33.669327
33.670555 33.671178 33.671197 33.670610 33.669419 33.667625 33.665232 33.662242
33.658660 33.654490 33.649740 33.644414 33.638521 33.632067 33.625064 33.617519
33.609442 33.600845 33.591739 33.582135 33.572047 33.561486 33.550467 33.539002
33.527107 33.514794 33.502080 33.488979 33.475507 33.461678 33.447508 33.433013
33.418208 33.403109 33.387731 33.372090 33.356201 33.340079 33.323740 33.307197
33.290467 33.273561 33.256496 33.239283 33.221937 33.204470 33.186895 33.169222
33.151466 33.133635 33.115742 33.097795 33.079805 33.061781 33.043731 33.025664
33.007587 32.989507 32.971432 32.953366 32.935317 32.917288 32.899286 32.881313
32.863374 32.845472 32.827610 32.809789 32.792014 32.774283 32.756600 32.738964
32.721377 32.703838 32.686347 32.668902 32.651505 32.634153 32.616844 32.599578
32.582351 32.565162 32.548009 32.530889 32.513798 32.496735 32.479696 32.462677
32.445676 32.428689 32.411713 32.394743 32.377778
32.755556 32.790351 32.825152 32.859967 32.894801 32.929661 32.964553 32.999483
33.034457 33.069480 33.104558 33.139694 33.174895 33.210164 33.245505 33.280921
33.316416 33.351990 33.387646 33.423385 33.459209 33.495114 33.531103 33.567172
33.603320 33.639543 33.675837 33.712198 33.748620 33.785096 33.821620 33.858181
33.894773 33.931383 33.968002 34.004615 34.041213 34.077777 34.114296 34.150751
34.187128 34.223404 34.259565 34.295586 34.331451 34.367134 34.402615 34.437867
34.472869 34.507592 34.542013 34.576103 34.609836 34.643181 34.676113 34.708599
34.740613 34.772121 34.803096 34.833504 34.863317 34.892502 34.921031 34.948869
34.975989 35.002357 35.027947 35.052726 35.076666 35.099738 35.121915 35.143168
35.163473 35.182802 35.201132 35.218438 35.234700 35.249894 35.264002 35.277005
35.288886 35.299628 35.309218 35.317641 35.324888 35.330948 35.335813 35.339477
35.341934 35.343182 35.343218 35.342044 35.339660 35.336071 35.331281 35.325297
35.318127 35.309783 35.300275 35.289616 35.277821 35.264906 35.250889 35.235789
35.219625 35.202420 35.184195 35.164976 35.144785 35.123651 35.101597 35.078654
35.054847 35.030209 35.004765 34.978548 34.951586 34.923913 34.895557 34.866551
34.836924 34.806710 34.775937 34.744639 34.712844 34.680585 34.647890 34.614790
34.581311 34.547486 34.513339 34.478899 34.444192 34.409244 34.374079 34.338723
34.303195 34.267522 34.231722 34.195817 34.159824 34.123765 34.087653 34.051509
34.015344 33.979176 33.943015 33.906876 33.870767 33.834703 33.798689 33.762737
33.726850 33.691040 33.655308 33.619662 33.584104 33.548639 33.513266 33.477991
33.442811 33.407728 33.372741 33.337850 33.303051 33.268343 33.233722 33.199186
33.164730 33.130350 33.096040 33.061797 33.027613 32.993485 32.959403 32.925364
32.891360 32.857384 32.823429 32.789489 32.755556
33.133333 33.185532 33.237740 33.289967 33.342224 33.394520 33.446864 33.499266
33.551732 33.604274 33.656896 33.709610 33.762418 33.815330 33.868350 33.921484
33.974734 34.028106 34.081601 34.135222 34.188967 34.242839 34.296835 34.350953
34.405189 34.459540 34.513996 34.568556 34.623206 34.677940 34.732744 34.787608
34.842516 34.897455 34.952405 35.007352 35.062272 35.117147 35.171951 35.226664
35.281256 35.335703 35.389973 35.444041 35.497868 35.551429 35.604683 35.657599
35.710136 35.762261 35.813928 35.865103 35.915739 35.965799 36.015235 36.064007
36.112066 36.159371 36.205872 36.251527 36.296286 36.340106 36.382937 36.424737
36.465454 36.505048 36.543470 36.580677 36.616623 36.651269 36.684568 36.716483
36.746971 36.775997 36.803521 36.829510 36.853928 36.876746 36.897932 36.917459
36.935299 36.951431 36.965831 36.978482 36.989364 36.998465 37.005771 37.011273
37.014963 37.016837 37.016891 37.015127 37.011548 37.006157 36.998964 36.989977
36.979211 36.966680 36.952401 36.936394 36.918682 36.899287 36.878239 36.855562
36.831290 36.805453 36.778087 36.749226 36.718908 36.687171 36.654057 36.619605
36.583859 36.546861 36.508659 36.469292 36.428812 36.387260 36.344687 36.301135
36.256656 36.211292 36.165094 36.118104 36.070373 36.021942 35.972861 35.923169
35.872915 35.822136 35.770879 35.719181 35.667085 35.614626 35.561845 35.508774
35.455452 35.401908 35.348178 35.294288 35.240272 35.186153 35.131960 35.077715
35.023444 34.969165 34.914902 34.860669 34.806487 34.752367 34.698328 34.644379
34.590534 34.536799 34.483187 34.429701 34.376351 34.323137 34.270067 34.217140
34.164359 34.111723 34.059233 34.006885 33.954678 33.902606 33.850668 33.798855
33.747164 33.695586 33.644116 33.592744 33.541463 33.490263 33.439136 33.388071
33.337060 33.286091 33.235154 33.184238 33.133333
33.511111 33.580719 33.650340 33.719987 33.789674 33.859413 33.929216 33.999095
34.069064 34.139131 34.209308 34.279605 34.350032 34.420596 34.491306 34.562166
34.633186 34.704366 34.775713 34.847227 34.918912 34.990763 35.062783 35.134965
35.207309 35.279803 35.352445 35.425221 35.498123 35.571135 35.644246 35.717435
35.790688 35.863980 35.937294 36.010599 36.083876 36.157089 36.230216 36.303217
36.376063 36.448714 36.521135 36.593282 36.665118 36.736592 36.807666 36.878285
36.948405 37.017971 37.086935 37.155237 37.222828 37.289646 37.355638 37.420739
37.484897 37.548043 37.610124 37.671072 37.730830 37.789330 37.846516 37.902321
37.956688 38.009551 38.060854 38.110532 38.158532 38.204791 38.249257 38.291872
38.332586 38.371344 38.408101 38.442805 38.475414 38.505885 38.534177 38.560253
38.584079 38.605622 38.624854 38.641747 38.656281 38.668435 38.678192 38.685539
38.690467 38.692969 38.693042 38.690687 38.685906 38.678707 38.669099 38.657098
38.642720 38.625984 38.606915 38.585539 38.561884 38.535984 38.507874 38.477592
38.445178 38.410676 38.374131 38.335591 38.295105 38.252727 38.208508 38.162506
38.114774 38.065375 38.014364 37.961805 37.907754 37.852279 37.795436 37.737294
37.677909 37.617350 37.555673 37.492947 37.429226 37.364579 37.299060 37.232733
37.165651 37.097877 37.029461 36.960463 36.890931 36.820922 36.750479 36.679657
36.608496 36.537046 36.465345 36.393438 36.321358 36.249149 36.176838 36.104464
36.032052 35.959638 35.887240 35.814889 35.742603 35.670408 35.598317 35.526352
35.454522 35.382847 35.311331 35.239990 35.168827 35.097851 35.027065 34.956474
34.886076 34.815876 34.745868 34.676053 34.606425 34.536981 34.467713 34.398616
34.329679 34.260896 34.192256 34.123749 34.055362 33.987085 33.918905 33.850809
33.782784 33.714816 33.646890 33.578993 33.511111
33.888889 33.975915 34.062958 34.150034 34.237159 34.324350 34.411621 34.498990
34.586468 34.674073 34.761815 34.849709 34.937764 35.025994 35.114406 35.203010
35.291811 35.380818 35.470032 35.559460 35.649099 35.738953 35.829016 35.919288
36.009758 36.100426 36.191274 36.282298 36.373477 36.464801 36.556246 36.647797
36.739425 36.831111 36.922820 37.014529 37.106198 37.197798 37.289285 37.380625
37.471768 37.562676 37.653294 37.743578 37.833468 37.922918 38.011861 38.100245
38.188002 38.275075 38.361390 38.446887 38.531490 38.615134 38.697741 38.779243
38.859558 38.938618 39.016339 39.092650 39.167467 39.240718 39.312320 39.382200
39.450275 39.516475 39.580716 39.642931 39.703039 39.760974 39.816660 39.870033
39.921021 39.969565 40.015599 40.059067 40.099909 40.138075 40.173511 40.206173
40.236015 40.263000 40.287088 40.308249 40.326453 40.341677 40.353898 40.363102
40.369275 40.372409 40.372500 40.369549 40.363560 40.354542 40.342508 40.327474
40.309464 40.288501 40.264615 40.237839 40.208210 40.175769 40.140560 40.102630
40.062033 40.018818 39.973047 39.924776 39.874072 39.820996 39.765618 39.708005
39.648232 39.586366 39.522489 39.456669 39.388989 39.319521 39.248349 39.175545
39.101194 39.025368 38.948152 38.869618 38.789849 38.708915 38.626899 38.543867
38.459901 38.375064 38.289434 38.203071 38.116050 38.028427 37.940272 37.851638
37.762591 37.673178 37.583461 37.493482 37.403298 37.312947 37.222480 37.131929
37.041342 36.950746 36.860182 36.769673 36.679254 36.588945 36.498775 36.408759
36.318921 36.229272 36.139832 36.050607 35.961611 35.872848 35.784328 35.696050
35.608020 35.520234 35.432695 35.345395 35.258333 35.171500 35.084892 34.998495
34.912304 34.826303 34.740483 34.654829 34.569329 34.483965 34.398723 34.313587
34.228540 34.143564 34.058642 33.973756 33.888889
34.266667 34.371122 34.475597 34.580112 34.684687 34.789341 34.894093 34.998961
35.103965 35.209118 35.314440 35.419944 35.525645 35.631555 35.737688 35.844050
35.950655 36.057505 36.164611 36.271971 36.379593 36.487469 36.595605 36.703989
36.812622 36.921487 37.030580 37.139880 37.249377 37.359045 37.468870 37.578818
37.688871 37.798989 37.909148 38.019302 38.129421 38.239454 38.349363 38.459092
38.568598 38.677817 38.786701 38.895179 39.003199 39.110683 39.217574 39.323788
39.429262 39.533908 39.637658 39.740421 39.842121 39.942665 40.041974 40.139950
40.236512 40.331560 40.425010 40.516761 40.606726 40.694804 40.780909 40.864939
40.946809 41.026418 41.103681 41.178503 41.250800 41.320478 41.387459 41.451653
41.512987 41.571377 41.626753 41.679038 41.728170 41.774080 41.816710 41.856000
41.891902 41.924363 41.953342 41.978799 42.000700 42.019014 42.033717 42.044789
42.052215 42.055985 42.056094 42.052543 42.045338 42.034488 42.020010 42.001925
41.980256 41.955037 41.926300 41.894089 41.858444 41.819418 41.777061 41.731434
41.682595 41.630613 41.575553 41.517492 41.456499 41.392660 41.326049 41.256756
41.184861 41.110459 41.033632 40.954478 40.873083 40.789547 40.703958 40.616416
40.527010 40.435842 40.342998 40.248580 40.152673 40.055379 39.956778 39.856970
39.756033 39.654063 39.551134 39.447340 39.342748 39.237448 39.131503 39.024997
38.917990 38.810557 38.702753 38.594649 38.486294 38.377752 38.269066 38.160293
38.051472 37.942653 37.833868 37.725162 37.616561 37.508103 37.399809 37.291710
37.183823 37.076173 36.968770 36.861635 36.754773 36.648200 36.541915 36.435930
36.330240 36.224851 36.119755 36.014955 35.910438 35.806202 35.702233 35.598525
35.495060 35.391830 35.288816 35.186005 35.083376 34.980915 34.878601 34.776414
34.674334 34.572341 34.470413 34.368529 34.266667
34.644444 34.766341 34.888261 35.010229 35.132266 35.254398 35.376643 35.499027
35.621568 35.744288 35.867204 35.990337 36.113699 36.237311 36.361181 36.485328
36.609754 36.734476 36.859493 36.984817 37.110443 37.236378 37.362613 37.489149
37.615971 37.743078 37.870447 37.998071 38.125922 38.253987 38.382230 38.510633
38.639154 38.767767 38.896423 39.025090 39.153712 39.282249 39.410638 39.538833
39.666763 39.794375 39.921591 40.048351 40.174570 40.300181 40.425093 40.549233
40.672503 40.794823 40.916090 41.036219 41.155103 41.272650 41.388750 41.503307
41.616206 41.727349 41.836619 41.943917 42.049121 42.152133 42.252832 42.351117
42.446870 42.539991 42.630364 42.717891 42.802459 42.883975 42.962330 43.037435
43.109188 43.177504 43.242290 43.303468 43.360951 43.414670 43.464548 43.510524
43.552530 43.590515 43.624424 43.654213 43.679839 43.701270 43.718475 43.731431
43.740120 43.744531 43.744659 43.740503 43.732071 43.719374 43.702432 43.681267
43.655912 43.626400 43.592775 43.555080 43.513373 43.467706 43.418146 43.364757
43.307615 43.246792 43.182374 43.114440 43.043086 42.968395 42.890472 42.809406
42.725306 42.638267 42.548404 42.455814 42.360614 42.262906 42.162808 42.060422
41.955870 41.849251 41.740688 41.630280 41.518145 41.404383 41.289110 41.172420
41.054427 40.935222 40.814913 40.693586 40.571347 40.448273 40.324464 40.199994
40.074955 39.949415 39.823459 39.697148 39.570560 39.443750 39.316788 39.189721
39.062613 38.935504 38.808451 38.681486 38.554658 38.427994 38.301536 38.175303
38.049330 37.923631 37.798234 37.673147 37.548390 37.423967 37.299893 37.176165
37.052793 36.929770 36.807099 36.684769 36.562779 36.441115 36.319771 36.198728
36.077978 35.957498 35.837277 35.717291 35.597523 35.477949 35.358550 35.239299
35.120175 35.001153 34.882207 34.763313 34.644444
35.022222 35.161575 35.300955 35.440389 35.579905 35.719528 35.859285 35.999199
36.139296 36.279598 36.420130 36.560908 36.701956 36.843288 36.984923 37.126872
37.269152 37.411767 37.554731 37.698043 37.841713 37.985733 38.130110 38.274828
38.419889 38.565272 38.710971 38.856958 39.003221 39.149725 39.296452 39.443357
39.590416 39.737576 39.884805 40.032043 40.179248 40.326353 40.473309 40.620039
40.766487 40.912566 41.058214 41.203335 41.347858 41.491681 41.634724 41.776879
41.918058 42.058146 42.197048 42.334643 42.470830 42.605484 42.738497 42.869739
42.999100 43.126445 43.251662 43.374612 43.495182 43.613234 43.728651 43.841297
43.951055 44.057791 44.161391 44.261723 44.358677 44.452125 44.541961 44.628066
44.710338 44.788665 44.862952 44.933098 44.999015 45.060611 45.117809 45.170528
45.218702 45.262260 45.301147 45.335307 45.364696 45.389272 45.409003 45.423861
45.433825 45.438884 45.439029 45.434263 45.424592 45.410031 45.390599 45.366327
45.337247 45.303403 45.264840 45.221614 45.173783 45.121416 45.064582 45.003362
44.937835 44.868094 44.794227 44.716338 44.634520 44.548889 44.459546 44.366611
44.270193 44.170419 44.067401 43.961272 43.852145 43.740159 43.625428 43.508092
43.388267 43.266092 43.141683 43.015178 42.886690 42.756356 42.624287 42.490614
42.355444 42.218905 42.081098 41.942145 41.802142 41.661206 41.519423 41.376904
41.233730 41.090003 40.945796 40.801203 40.656289 40.511141 40.365816 40.220391
40.074915 39.929458 39.784061 39.638784 39.493660 39.348742 39.204056 39.059646
38.915529 38.771743 38.628298 38.485224 38.342524 38.200222 38.058315 37.916818
37.775724 37.635042 37.494760 37.354881 37.215387 37.076276 36.937529 36.799136
36.661074 36.523331 36.385881 36.248706 36.111779 35.975080 35.838578 35.702251
35.566069 35.430004 35.294027 35.158110 35.022222
35.400000 35.556825 35.713681 35.870599 36.027609 36.184742 36.342026 36.499491
36.657162 36.815069 36.973234 37.131684 37.290436 37.449517 37.608938 37.768723
37.928879 38.089425 38.250361 38.411703 38.573446 38.735599 38.898150 39.061103
39.224439 39.388156 39.552226 39.716639 39.881361 40.046375 40.211636 40.377120
40.542774 40.708565 40.874430 41.040328 41.206187 41.371957 41.537555 41.702923
41.867970 42.032627 42.196793 42.360392 42.523313 42.685470 42.846745 43.007042
43.166237 43.324224 43.480872 43.636070 43.789676 43.941575 44.091621 44.239691
44.385635 44.529326 44.670611 44.809360 44.945418 45.078654 45.208911 45.336059
45.459942 45.580432 45.697375 45.810646 45.920097 46.025604 46.127028 46.224252
46.317142 46.405589 46.489470 46.568684 46.643117 46.712680 46.777271 46.836810
46.891212 46.940407 46.984323 47.022905 47.056096 47.083853 47.106137 47.122917
47.134171 47.139883 47.140047 47.134663 47.123739 47.107291 47.085345 47.057929
47.025087 46.986860 46.943308 46.894486 46.840469 46.781326 46.717144 46.648005
46.574010 46.495252 46.411843 46.323888 46.231508 46.134817 46.033947 45.929017
45.820169 45.707526 45.591236 45.471429 45.348256 45.221850 45.092365 44.959934
44.824714 44.686837 44.546460 44.403713 44.258752 44.111703 43.962719 43.811922
43.659460 43.505450 43.350034 43.193323 43.035452 42.876524 42.716668 42.555978
42.394574 42.232543 42.069997 41.907012 41.743691 41.580102 41.416338 41.252458
41.088545 40.924650 40.760846 40.597174 40.433697 40.270449 40.107484 39.944825
39.782519 39.620581 39.459048 39.297929 39.137250 38.977015 38.817244 38.657930
38.499087 38.340705 38.182788 38.025320 37.868301 37.711710 37.555540 37.399767
37.244377 37.089344 36.934649 36.780262 36.626162 36.472316 36.318699 36.165277
36.012022 35.858899 35.705877 35.552921 35.400000
35.777778 35.952093 36.126443 36.300863 36.475386 36.650047 36.824879 36.999913
37.175182 37.350712 37.526538 37.702679 37.879167 38.056018 38.233261 38.410906
38.588977 38.767480 38.946433 39.125836 39.305701 39.486020 39.666802 39.848028
40.029701 40.211795 40.394303 40.577192 40.760448 40.944026 41.127903 41.312027
41.496366 41.680854 41.865453 42.050085 42.234702 42.419218 42.603571 42.787666
42.971432 43.154762 43.337575 43.519753 43.701206 43.881807 44.061454 44.240011
44.417367 44.593377 44.767923 44.940850 45.112032 45.281309 45.448547 45.613580
45.776269 45.936444 46.093962 46.248648 46.400357 46.548916 46.694175 46.835962
46.974129 47.108506 47.238947 47.365285 47.487381 47.605072 47.718223 47.826683
47.930322 48.028998 48.122592 48.210972 48.294029 48.371646 48.443724 48.510160
48.570870 48.625766 48.674776 48.717830 48.754871 48.785846 48.810715 48.829440
48.841999 48.848374 48.848555 48.842546 48.830353 48.811997 48.787502 48.756907
48.720252 48.677592 48.628986 48.574505 48.514222 48.448226 48.376602 48.299455
48.216885 48.129010 48.035942 47.937811 47.834740 47.726871 47.614336 47.497286
47.375859 47.250218 47.120503 46.986884 46.849506 46.708542 46.564141 46.416476
46.265697 46.111980 45.955471 45.796345 45.634747 45.470849 45.304789 45.136737
44.966826 44.795218 44.622041 44.447449 44.271562 44.094527 43.916456 43.737485
43.557717 43.377281 43.196267 43.014795 42.832946 42.650828 42.468512 42.286097
42.103642 41.921235 41.738926 41.556792 41.374873 41.193234 41.011907 40.830947
40.650375 40.470238 40.290548 40.111341 39.932622 39.754417 39.576724 39.399562
39.222919 39.046807 38.871210 38.696130 38.521545 38.347452 38.173824 38.000650
37.827901 37.655559 37.483592 37.311978 37.140680 36.969673 36.798918 36.628386
36.458039 36.287842 36.117758 35.947749 35.777778
36.155556 36.347380 36.539243 36.731185 36.923241 37.115451 37.307851 37.500478
37.693365 37.886547 38.080053 38.273918 38.468164 38.662822 38.857910 39.053457
39.249471 39.445977 39.642978 39.840492 40.038515 40.237059 40.436110 40.635674
40.835729 41.036271 41.237269 41.438713 41.640559 41.842787 42.045345 42.248204
42.451298 42.654587 42.857997 43.061476 43.264937 43.468319 43.671521 43.874472
44.077059 44.279199 44.480769 44.681673 44.881777 45.080974 45.279119 45.476095
45.671746 45.865946 46.058528 46.249357 46.438260 46.625091 46.809671 46.991848
47.171435 47.348276 47.522181 47.692987 47.860503 48.024566 48.184981 48.341586
48.494190 48.642628 48.786715 48.926291 49.061173 49.191208 49.316222 49.436068
49.550583 49.659628 49.763050 49.860724 49.952510 50.038294 50.117951 50.191382
50.258479 50.319156 50.373324 50.420914 50.461855 50.496094 50.523580 50.544279
50.558159 50.565204 50.565404 50.558760 50.545282 50.524989 50.497913 50.464092
50.423576 50.376420 50.322695 50.262474 50.195846 50.122899 50.043741 49.958474
49.867223 49.770105 49.667259 49.558814 49.444924 49.325728 49.201390 49.072060
48.937913 48.799104 48.655816 48.508210 48.356475 48.200775 48.041302 47.878222
47.711729 47.541988 47.369192 47.193505 47.015118 46.834188 46.650905 46.465420
46.277915 46.088536 45.897458 45.704819 45.510784 45.315481 45.119069 44.921664
44.723414 44.524425 44.324834 44.124737 43.924258 43.723482 43.522521 43.321449
43.120367 42.919336 42.718445 42.517744 42.317312 42.117187 41.917435 41.718086
41.519194 41.320777 41.122881 40.925514 40.728710 40.532470 40.336818 40.141748
39.947272 39.753378 39.560071 39.367331 39.175156 38.983519 38.792410 38.601800
38.411671 38.221989 38.032732 37.843860 37.655348 37.467154 37.279246 37.091582
36.904127 36.716837 36.529673 36.342593 36.155556
36.533333 36.742688 36.952085 37.161568 37.371180 37.580960 37.790953 38.001194
38.211726 38.422582 38.633801 38.845412 39.057452 39.269943 39.482918 39.696393
39.910397 40.124938 40.340040 40.555702 40.771942 40.988750 41.206138 41.424086
41.642596 41.861639 42.081209 42.301265 42.521792 42.742737 42.964075 43.185742
43.407699 43.629872 43.852211 44.074627 44.297059 44.519406 44.741594 44.963508
45.185063 45.406131 45.626613 45.846368 46.065287 46.283216 46.500031 46.715570
46.929696 47.142235 47.353042 47.561930 47.768747 47.973296 48.175415 48.374902
48.571588 48.765266 48.955759 49.142858 49.326383 49.506122 49.681894 49.853488
50.020724 50.183392 50.341314 50.494288 50.642140 50.784674 50.921723 51.053102
51.178653 51.298201 51.411601 51.518692 51.619339 51.713400 51.800753 51.881274
51.954856 52.021394 52.080801 52.132989 52.177890 52.215438 52.245584 52.268283
52.283506 52.291231 52.291449 52.284160 52.269376 52.247119 52.217421 52.180328
52.135890 52.084174 52.025251 51.959210 51.886138 51.806146 51.719336 51.625839
51.525775 51.419290 51.306519 51.187625 51.062754 50.932083 50.795772 50.654007
50.506956 50.354818 50.197766 50.036006 49.869718 49.699110 49.524366 49.345698
49.163289 48.977352 48.788067 48.595648 48.400270 48.202143 48.001437 47.798357
47.593065 47.385758 47.176592 46.965754 46.753390 46.539677 46.324751 46.108777
45.891880 45.674214 45.455890 45.237051 45.017795 44.798253 44.578509 44.358682
44.138844 43.919099 43.699507 43.480160 43.261105 43.042421 42.824145 42.606342
42.389037 42.172284 41.956098 41.740521 41.525557 41.311238 41.097560 40.884542
40.672173 40.460464 40.249394 40.038964 39.829150 39.619943 39.411312 39.203242
38.995697 38.788654 38.582073 38.375927 38.170171 37.964773 37.759686 37.554874
37.350288 37.145888 36.941625 36.737456 36.533333
36.911111 37.138017 37.364970 37.592017 37.819205 38.046581 38.274188 38.502072
38.730271 38.958832 39.187788 39.417182 39.647042 39.877406 40.108297 40.339748
40.571773 40.804403 41.037641 41.271511 41.506009 41.741150 41.976921 42.213328
42.450346 42.687974 42.926175 43.164938 43.404213 43.643978 43.884171 44.124758
44.365664 44.606842 44.848203 45.089689 45.331196 45.572652 45.813939 46.054971
46.295616 46.535776 46.775303 47.014085 47.251961 47.488805 47.724444 47.958737
48.191500 48.422580 48.651780 48.878936 49.103841 49.326322 49.546162 49.763179
49.977150 50.187885 50.395157 50.598770 50.798494 50.994130 51.185448 51.372249
51.554302 51.731412 51.903352 52.069929 52.230925 52.386153 52.535404 52.678499
52.815242 52.945464 53.068984 53.185646 53.295284 53.397758 53.492921 53.580649
53.660814 53.733312 53.798036 53.854900 53.903821 53.944734 53.977579 54.002312
54.018898 54.027314 54.027550 54.019605 54.003495 53.979240 53.946880 53.906459
53.858039 53.801686 53.737486 53.665526 53.585914 53.498756 53.404183 53.302318
53.193311 53.077305 52.954466 52.824951 52.688945 52.546616 52.398165 52.243769
52.083641 51.917967 51.746971 51.570844 51.389815 51.204083 51.013878 50.819401
50.620885 50.418530 50.212568 50.003195 49.790641 49.575096 49.356787 49.135896
48.912642 48.687198 48.459776 48.230537 47.999684 47.767366 47.533774 47.299047
47.063360 46.826841 46.589652 46.351906 46.113751 45.875288 45.636649 45.397923
45.159226 44.920633 44.682248 44.444130 44.206370 43.969014 43.732139 43.495778
43.259994 43.024810 42.790276 42.556403 42.323229 42.090754 41.859004 41.627971
41.397670 41.168083 40.939216 40.711043 40.483561 40.256736 40.030557 39.804985
39.580000 39.355559 39.131635 38.908181 38.685163 38.462532 38.240248 38.018262
37.796528 37.574995 37.353616 37.132338 36.911111
37.288889 37.533368 37.777900 38.022534 38.267324 38.512316 38.757565 39.003113
39.249013 39.495303 39.742032 39.989234 40.236955 40.485221 40.734074 40.983532
41.233633 41.484386 41.735822 41.987941 42.240765 42.494285 42.748515 43.003434
43.259046 43.515319 43.772247 44.029784 44.287912 44.546573 44.805737 45.065331
45.325311 45.585591 45.846113 46.106775 46.367505 46.628187 46.888733 47.149011
47.408920 47.668310 47.927066 48.185023 48.442052 48.697972 48.952638 49.205857
49.457471 49.707271 49.955087 50.200699 50.443924 50.684531 50.922328 51.157076
51.388571 51.616569 51.840861 52.061196 52.277360 52.489102 52.696205 52.898418
53.095525 53.287278 53.473464 53.653840 53.828199 53.996308 54.157968 54.312956
54.461084 54.602144 54.735961 54.862344 54.981132 55.092153 55.195265 55.290316
55.377183 55.455736 55.525873 55.587490 55.640504 55.684837 55.720430 55.747230
55.765203 55.774322 55.774575 55.765964 55.748502 55.722217 55.687145 55.643341
55.590865 55.529799 55.460226 55.382251 55.295979 55.201542 55.099063 54.988698
54.870589 54.744912 54.611827 54.471529 54.324193 54.170030 54.009230 53.842017
53.668591 53.489188 53.304017 53.113322 52.917318 52.716255 52.510349 52.299856
52.084991 51.866010 51.643128 51.416596 51.186625 50.953464 50.717314 50.478418
50.236970 49.993202 49.747299 49.499481 49.249922 48.998832 48.746368 48.492727
48.238056 47.982535 47.726295 47.469504 47.212276 46.954765 46.697070 46.439328
46.181623 45.924077 45.666759 45.409776 45.153183 44.897069 44.641478 44.386484
44.132115 43.878434 43.625456 43.373229 43.121757 42.871074 42.621176 42.372082
42.123780 41.876277 41.629552 41.383602 41.138397 40.893925 40.650150 40.407051
40.164584 39.922723 39.681418 39.440636 39.200324 38.960441 38.720933 38.481754
38.242848 38.004164 37.765646 37.527239 37.288889
37.666667 37.928743 38.190876 38.453122 38.715535 38.978173 39.241086 39.504330
39.767952 40.032007 40.296534 40.561585 40.827194 41.093408 41.360254 41.627774
41.895984 42.164922 42.434594 42.705030 42.976226 43.248202 43.520943 43.794461
44.068727 44.343741 44.619463 44.895881 45.172940 45.450615 45.728837 46.007567
46.286719 46.566241 46.846032 47.126024 47.406099 47.686172 47.966110 48.245812
48.525128 48.803940 49.082081 49.359418 49.635766 49.910977 50.184850 50.457221
50.727875 50.996632 51.263264 51.527576 51.789329 52.048316 52.304285 52.557021
52.806262 53.051784 53.293320 53.530640 53.763471 53.991580 54.214694 54.432578
54.644961 54.851609 55.052257 55.246676 55.434607 55.615830 55.790096 55.957195
56.116894 56.268994 56.413279 56.549566 56.677658 56.797390 56.908587 57.011102
57.104785 57.189511 57.265156 57.331616 57.388795 57.436614 57.475004 57.503912
57.523295 57.533130 57.533401 57.524110 57.505273 57.476916 57.439084 57.391830
57.335229 57.269356 57.194315 57.110207 57.017161 56.915302 56.804785 56.685755
56.558390 56.422858 56.279357 56.128072 55.969221 55.803005 55.629659 55.449395
55.262463 55.069087 54.869525 54.664009 54.452807 54.236154 54.014322 53.787550
53.556111 53.320241 53.080214 52.836261 52.588653 52.337615 52.083411 51.826256
51.566407 51.304068 51.039486 50.772852 50.504399 50.234306 49.962793 49.690022
49.416199 49.141471 48.866026 48.589997 48.313555 48.036815 47.759933 47.483007
47.206175 46.929521 46.653164 46.377172 46.101650 45.826648 45.552255 45.278509
45.005480 44.733193 44.461705 44.191026 43.921198 43.652221 43.384123 43.116892
42.850544 42.585057 42.320434 42.056647 41.793686 41.531514 41.270114 41.009441
40.749468 40.490145 40.231438 39.973292 39.715665 39.458500 39.201748 38.945350
38.689252 38.433393 38.177717 37.922161 37.666667
38.044444 38.324141 38.603899 38.883779 39.163843 39.444148 39.724756 40.005720
40.287100 40.568943 40.851307 41.134234 41.417777 41.701969 41.986860 42.272474
42.558854 42.846015 43.133992 43.422789 43.712433 44.002916 44.294255 44.586430
44.879446 45.173269 45.467893 45.763268 46.059377 46.356153 46.653563 46.951527
47.249996 47.548870 47.848088 48.147531 48.447120 48.746720 49.046233 49.345508
49.644428 49.942823 50.240560 50.537451 50.833343 51.128032 51.421349 51.713071
52.003014 52.290938 52.576644 52.859878 53.140426 53.418022 53.692438 53.963399
54.230666 54.493954 54.753018 55.007566 55.257348 55.502069 55.741476 55.975274
56.203209 56.424992 56.640371 56.849063 57.050825 57.245382 57.432499 57.611918
57.783416 57.946750 58.101712 58.248080 58.385664 58.514264 58.633709 58.743825