# vtk DataFile Version 3.0
Steady-state temperature (Jacobi)
ASCII
DATASET STRUCTURED_POINTS
DIMENSIONS 181 181 1
ORIGIN 0.0 0.0 0.0
SPACING 0.05 0.05 1.0
POINT_DATA 32761
SCALARS Temperature float 1
LOOKUP_TABLE default
32.000000 32.000000 32.000000 32.000000 32.000000 32.000000 32.000000 32.000000
32.000000 32.000000 32.000000 32.000000 32.000000 32.000000 32.000000 32.000000
32.000000 32.000000 32.000000 32.000000 32.000000 32.000000 32.000000 32.000000
32.000000 32.000000 32.000000 32.000000 32.000000 32.000000 32.000000 32.000000
32.000000 32.000000 32.000000 32.000000 32.000000 32.000000 32.000000 32.000000
32.000000 32.000000 32.000000 32.000000 32.000000 32.000000 32.000000 32.000000
32.000000 32.000000 32.000000 32.000000 32.000000 32.000000 32.000000 32.000000
32.000000 32.000000 32.000000 32.000000 32.000000 32.000000 32.000000 32.000000
32.000000 32.000000 32.000000 32.000000 32.000000 32.000000 32.000000 32.000000
32.000000 32.000000 32.000000 32.000000 32.000000 32.000000 32.000000 32.000000
32.000000 32.000000 32.000000 32.000000 32.000000 32.000000 32.000000 32.000000
32.000000 32.000000 32.000000 32.000000 32.000000 32.000000 32.000000 32.000000
32.000000 32.000000 32.000000 32.000000 32.000000 32.000000 32.000000 32.000000
32.000000 32.000000 32.000000 32.000000 32.000000 32.000000 32.000000 32.000000
32.000000 32.000000 32.000000 32.000000 32.000000 32.000000 32.000000 32.000000
32.000000 32.000000 32.000000 32.000000 32.000000 32.000000 32.000000 32.000000
32.000000 32.000000 32.000000 32.000000 32.000000 32.000000 32.000000 32.000000
32.000000 32.000000 32.000000 32.000000 32.000000 32.000000 32.000000 32.000000
32.000000 32.000000 32.000000 32.000000 32.000000 32.000000 32.000000 32.000000
32.000000 32.000000 32.000000 32.000000 32.000000 32.000000 32.000000 32.000000
32.000000 32.000000 32.000000 32.000000 32.000000 32.000000 32.000000 32.000000
32.000000 32.000000 32.000000 32.000000 32.000000 32.000000 32.000000 32.000000
32.000000 32.000000 32.000000 32.000000 32.000000
32.377778 32.394254 32.410734 32.427222 32.443722 32.460238 32.476773 32.493332
32.509918 32.526535 32.543185 32.559873 32.576600 32.593371 32.610186 32.627049
32.643962 32.660926 32.677942 32.695012 32.712136 32.729316 32.746551 32.763840
32.781183 32.798579 32.816025 32.833522 32.851064 32.868650 32.886276 32.903939
32.921632 32.939354 32.957096 32.974854 32.992620 33.010389 33.028151 33.045900
33.063625 33.081321 33.098973 33.116576 33.134115 33.151582 33.168962 33.186247
33.203421 33.220473 33.237388 33.254154 33.270755 33.287178 33.303407 33.319428
33.335225 33.350784 33.366086 33.381119 33.395865 33.410309 33.424433 33.438224
33.451663 33.464738 33.477431 33.489727 33.501610 33.513068 33.524084 33.534645
33.544737 33.554347 33.563462 33.572070 33.580160 33.587720 33.594741 33.601212
33.607125 33.612471 33.617243 33.621435 33.625040 33.628054 33.630471 33.632290
33.633507 33.634120 33.634129 33.633534 33.632336 33.630536 33.628138 33.625144
33.621560 33.617390 33.612640 33.607317 33.601429 33.594983 33.587990 33.580458
33.572400 33.563823 33.554743 33.545169 33.535116 33.524596 33.513623 33.502212
33.490377 33.478132 33.465494 33.452477 33.439099 33.425372 33.411316 33.396943
33.382273 33.367320 33.352100 33.336629 33.320924 33.304999 33.288871 33.272553
33.256063 33.239412 33.222618 33.205691 33.188649 33.171501 33.154262 33.136943
33.119558 33.102116 33.084629 33.067106 33.049559 33.031994 33.014423 32.996852
32.979291 32.961744 32.944221 32.926724 32.909263 32.891839 32.874460 32.857127
32.839846 32.822617 32.805446 32.788333 32.771280 32.754288 32.737359 32.720491
32.703686 32.686942 32.670260 32.653637 32.637074 32.620566 32.604113 32.587712
32.571361 32.555057 32.538796 32.522575 32.506391 32.490240 32.474119 32.458023
32.441948 32.425890 32.409846 32.393809 32.377778
32.755556 32.788510 32.821473 32.854452 32.887455 32.920489 32.953564 32.986685
33.019861 33.053097 33.086402 33.119780 33.153239 33.186783 33.220419 33.254148
33.287978 33.321910 33.355948 33.390093 33.424349 33.458713 33.493189 33.527772
33.562466 33.597263 33.632165 33.667164 33.702257 33.737437 33.772699 33.808031
33.843430 33.878881 33.914377 33.949901 33.985446 34.020993 34.056531 34.092040
34.127506 34.162907 34.198228 34.233444 34.268538 34.303484 34.338262 34.372844
34.407210 34.441327 34.475175 34.508721 34.541942 34.574803 34.607280 34.639338
34.670950 34.702082 34.732707 34.762788 34.792298 34.821200 34.849468 34.877064
34.903962 34.930126 34.955529 34.980135 35.003920 35.026848 35.048896 35.070031
35.090229 35.109461 35.127705 35.144932 35.161124 35.176254 35.190306 35.203257
35.215091 35.225791 35.235343 35.243732 35.250947 35.256978 35.261818 35.265457
35.267893 35.269120 35.269139 35.267948 35.265550 35.261948 35.257147 35.251156
35.243982 35.235635 35.226128 35.215475 35.203690 35.190791 35.176794 35.161721
35.145591 35.128428 35.110253 35.091094 35.070973 35.049920 35.027959 35.005122
34.981435 34.956932 34.931638 34.905590 34.878814 34.851346 34.823214 34.794455
34.765095 34.735173 34.704715 34.673758 34.642329 34.610464 34.578189 34.545539
34.512539 34.479224 34.445617 34.411751 34.377648 34.343339 34.308845 34.274196
34.239409 34.204512 34.169523 34.134466 34.099357 34.064218 34.029063 33.993912
33.958776 33.923674 33.888614 33.853614 33.818679 33.783825 33.749056 33.714384
33.679811 33.645349 33.610998 33.576766 33.542652 33.508664 33.474797 33.441057
33.407441 33.373950 33.340579 33.307331 33.274197 33.241179 33.208268 33.175464
33.142757 33.110145 33.077619 33.045175 33.012804 32.980500 32.948253 32.916059
32.883906 32.851788 32.819696 32.787622 32.755556
33.133333 33.182773 33.232224 33.281699 33.331211 33.380770 33.430389 33.480079
33.529850 33.579713 33.629678 33.679756 33.729952 33.780280 33.830741 33.881348
33.932103 33.983014 34.034082 34.085314 34.136709 34.188271 34.239998 34.291892
34.343946 34.396162 34.448530 34.501049 34.553707 34.606500 34.659411 34.712436
34.765554 34.818758 34.872024 34.925340 34.978682 35.032034 35.085367 35.138664
35.191891 35.245028 35.298039 35.350901 35.403574 35.456033 35.508234 35.560148
35.611731 35.662950 35.713758 35.764121 35.813990 35.863326 35.912080 35.960212
36.007671 36.054415 36.100391 36.145558 36.189863 36.233262 36.275703 36.317142
36.357528 36.396817 36.434958 36.471910 36.507623 36.542056 36.575161 36.606901
36.637231 36.666113 36.693508 36.719381 36.743694 36.766418 36.787518 36.806969
36.824740 36.840810 36.855154 36.867753 36.878589 36.887647 36.894914 36.900380
36.904037 36.905881 36.905909 36.904120 36.900519 36.895109 36.887901 36.878902
36.868128 36.855593 36.841316 36.825316 36.807619 36.788246 36.767227 36.744590
36.720369 36.694593 36.667301 36.638528 36.608314 36.576697 36.543722 36.509426
36.473860 36.437063 36.399086 36.359969 36.319767 36.278520 36.236283 36.193098
36.149020 36.104090 36.058364 36.011882 35.964699 35.916856 35.868404 35.819384
35.769848 35.719831 35.669384 35.618542 35.567353 35.515848 35.464074 35.412060
35.359848 35.307466 35.254952 35.202331 35.149639 35.096897 35.044138 34.991379
34.938652 34.885969 34.833357 34.780829 34.728407 34.676100 34.623928 34.571896
34.520021 34.468305 34.416764 34.365396 34.314212 34.263210 34.212398 34.161772
34.111336 34.061084 34.011019 33.961132 33.911423 33.861883 33.812510 33.763291
33.714224 33.665296 33.616500 33.567824 33.519261 33.470796 33.422421 33.374121
33.325886 33.277702 33.229557 33.181439 33.133333
33.511111 33.577043 33.642991 33.708972 33.775001 33.841094 33.907267 33.973534
34.039911 34.106410 34.173047 34.239832 34.306780 34.373899 34.441203 34.508696
34.576392 34.644293 34.712409 34.780740 34.849294 34.918068 34.987068 35.056286
35.125725 35.195375 35.265237 35.335294 35.405545 35.475969 35.546563 35.617300
35.688172 35.759152 35.830225 35.901359 35.972537 36.043721 36.114891 36.186005
36.257038 36.327943 36.398692 36.469234 36.539535 36.609542 36.679217 36.748501
36.817355 36.885716 36.953539 37.020761 37.087333 37.153189 37.218276 37.282527
37.345889 37.408290 37.469676 37.529975 37.589131 37.647073 37.703743 37.759070
37.812998 37.865457 37.916390 37.965730 38.013422 38.059399 38.103611 38.145994
38.186500 38.225068 38.261655 38.296206 38.328678 38.359024 38.387205 38.413180
38.436916 38.458377 38.477535 38.494361 38.508834 38.520931 38.530637 38.537937
38.542822 38.545284 38.545321 38.542933 38.538122 38.530898 38.521269 38.509252
38.494861 38.478121 38.459052 38.437685 38.414047 38.388176 38.360103 38.329873
38.297523 38.263102 38.226652 38.188229 38.147878 38.105659 38.061621 38.015827
37.968330 37.919197 37.868482 37.816254 37.762569 37.707499 37.651100 37.593445
37.534590 37.474608 37.413555 37.351504 37.288509 37.224643 37.159959 37.094526
37.028396 36.961636 36.894294 36.826437 36.758107 36.689369 36.620263 36.550849
36.481162 36.411260 36.341175 36.270958 36.200639 36.130264 36.059859 35.989466
35.919106 35.848817 35.778617 35.708539 35.638595 35.568814 35.499207 35.429796
35.360588 35.291604 35.222844 35.154325 35.086046 35.018018 34.950238 34.882713
34.815437 34.748414 34.681634 34.615100 34.548798 34.482728 34.416875 34.351235
34.285793 34.220541 34.155463 34.090549 34.025782 33.961150 33.896635 33.832223
33.767896 33.703639 33.639434 33.575264 33.511111
33.888889 33.971325 34.053781 34.136279 34.218836 34.301475 34.384213 34.467070
34.550064 34.633214 34.716535 34.800045 34.883756 34.967686 35.051843 35.136245
35.220895 35.305809 35.390987 35.476443 35.562173 35.648187 35.734477 35.821050
35.907894 35.995013 36.082389 36.170022 36.257890 36.345988 36.434289 36.522783
36.611439 36.700242 36.789154 36.878156 36.967205 37.056276 37.145321 37.234310
37.323190 37.411924 37.500454 37.588740 37.676716 37.764339 37.851537 37.938262
38.024439 38.110013 38.194907 38.279061 38.362394 38.444844 38.526324 38.606770
38.686095 38.764229 38.841085 38.916593 38.990662 39.063222 39.134182 39.203472
39.271002 39.336702 39.400486 39.462283 39.522009 39.579598 39.634969 39.688057
39.738788 39.787100 39.832924 39.876205 39.916877 39.954891 39.990190 40.022730
40.052461 40.079346 40.103343 40.124422 40.142551 40.157706 40.169864 40.179010
40.185128 40.188213 40.188259 40.185267 40.179241 40.170190 40.158129 40.143073
40.125048 40.104075 40.080190 40.053422 40.023814 39.991403 39.956241 39.918371
39.877851 39.834733 39.789080 39.740950 39.690412 39.637528 39.582374 39.525015
39.465533 39.403993 39.340483 39.275071 39.207845 39.138877 39.068256 38.996053
38.922361 38.847250 38.770810 38.693112 38.614247 38.534282 38.453306 38.371384
38.288604 38.205026 38.120735 38.035790 37.950269 37.864227 37.777740 37.690857
37.603650 37.516163 37.428462 37.340588 37.252601 37.164535 37.076447 36.988364
36.900338 36.812393 36.724572 36.636895 36.549400 36.462102 36.375033 36.288203
36.201640 36.115347 36.029349 35.943644 35.858250 35.773165 35.688400 35.603947
35.519816 35.435995 35.352488 35.269282 35.186376 35.103753 35.021411 34.939330
34.857503 34.775909 34.694539 34.613371 34.532391 34.451577 34.370913 34.290377
34.209949 34.129607 34.049331 33.969099 33.888889
34.266667 34.365620 34.464599 34.563626 34.662728 34.761925 34.861245 34.960706
35.060335 35.160150 35.260174 35.360422 35.460919 35.561674 35.662710 35.764035
35.865668 35.967612 36.069884 36.172483 36.275423 36.378697 36.482315 36.586266
36.690557 36.795169 36.900105 37.005342 37.110876 37.216678 37.322740 37.429026
37.535522 37.642186 37.748999 37.855910 37.962896 38.069900 38.176890 38.283804
38.390604 38.497221 38.603610 38.709697 38.815430 38.920729 39.025537 39.129766
39.233354 39.336210 39.438265 39.539422 39.639609 39.738725 39.836693 39.933409
40.028792 40.122736 40.215159 40.305951 40.395029 40.482282 40.567627 40.650955
40.732180 40.811195 40.887918 40.962244 41.034090 41.103358 41.169968 41.233827
41.294858 41.352973 41.408104 41.460168 41.509103 41.554833 41.597304 41.636450
41.672223 41.704566 41.733440 41.758800 41.780614 41.798846 41.813476 41.824478
41.831841 41.835552 41.835607 41.832007 41.824756 41.813867 41.799354 41.781240
41.759551 41.734319 41.705579 41.673376 41.637751 41.598760 41.556453 41.510895
41.462144 41.410274 41.355350 41.297452 41.236652 41.173040 41.106690 41.037698
40.966143 40.892127 40.815732 40.737062 40.656202 40.573261 40.488323 40.401498
40.312872 40.222555 40.130632 40.037213 39.942380 39.846242 39.748879 39.650396
39.550871 39.450407 39.349075 39.246974 39.144172 39.040762 38.936808 38.832397
38.727587 38.622459 38.517064 38.411480 38.305750 38.199945 38.094102 37.988286
37.882528 37.776884 37.671381 37.566068 37.460964 37.356114 37.251531 37.147251
37.043282 36.939654 36.836371 36.733456 36.630907 36.528741 36.426953 36.325554
36.224532 36.123896 36.023631 35.923737 35.824197 35.725009 35.626151 35.527615
35.429380 35.331434 35.233751 35.136317 35.039106 34.942099 34.845269 34.748596
34.652052 34.555614 34.459254 34.362947 34.266667
34.644444 34.759932 34.875449 34.991024 35.106684 35.222460 35.338376 35.454463
35.570743 35.687244 35.803988 35.921000 36.038298 36.155908 36.273841 36.392121
36.510755 36.629765 36.749151 36.868932 36.989104 37.109682 37.230654 37.352030
37.473796 37.595953 37.718481 37.841378 37.964613 38.088181 38.212043 38.336186
38.460566 38.585163 38.709924 38.834822 38.959796 39.084814 39.209806 39.334731
39.459513 39.584104 39.708419 39.832402 39.955963 40.079039 40.201531 40.323369
40.444448 40.564693 40.683992 40.802263 40.919390 41.035286 41.149830 41.262931
41.374463 41.484333 41.592413 41.698606 41.802784 41.904847 42.004667 42.102145
42.197154 42.289595 42.379344 42.466304 42.550355 42.631402 42.709332 42.784054
42.855460 42.923466 42.987972 43.048899 43.106157 43.159674 43.209371 43.255184
43.297044 43.334898 43.368686 43.398367 43.423893 43.445232 43.462352 43.475229
43.483845 43.488188 43.488253 43.484038 43.475553 43.462808 43.445824 43.424624
43.399242 43.369711 43.336079 43.298390 43.256702 43.211070 43.161564 43.108248
43.051204 42.990504 42.926238 42.858487 42.787350 42.712915 42.635289 42.554563
42.470853 42.384254 42.294887 42.202849 42.108267 42.011239 41.911893 41.810331
41.706680 41.601041 41.493544 41.384286 41.273396 41.160969 41.047131 40.931973
40.815619 40.698155 40.579700 40.460335 40.340174 40.219292 40.097796 39.975756
39.853271 39.730406 39.607252 39.483865 39.360332 39.236700 39.113047 38.989415
38.865872 38.742454 38.619221 38.496200 38.373446 38.250977 38.128840 38.007048
37.885640 37.764620 37.644022 37.523844 37.404111 37.284818 37.165982 37.047592
36.929659 36.812169 36.695124 36.578507 36.462317 36.346530 36.231140 36.116122
36.001464 35.887138 35.773128 35.659405 35.545948 35.432727 35.319719 35.206891
35.094217 34.981665 34.869206 34.756810 34.644444
35.022222 35.154263 35.286338 35.418478 35.550719 35.683090 35.815626 35.948355
36.081310 36.214517 36.348008 36.481803 36.615935 36.750418 36.885282 37.020539
37.156213 37.292311 37.428854 37.565843 37.703295 37.841204 37.979582 38.118416
38.257712 38.397451 38.537633 38.678228 38.819233 38.960609 39.102345 39.244395
39.386738 39.529321 39.672115 39.815058 39.958113 40.101208 40.244300 40.387305
40.530173 40.672812 40.815162 40.957123 41.098626 41.239564 41.379860 41.519397
41.658091 41.795820 41.932491 42.067975 42.202174 42.334952 42.466206 42.595796
42.723613 42.849515 42.973389 43.095089 43.214502 43.331481 43.445911 43.557645
43.666569 43.772539 43.875441 43.975135 44.071511 44.164434 44.253797 44.339474
44.421361 44.499342 44.573320 44.643187 44.708856 44.770229 44.827228 44.879768
44.927781 44.971193 45.009949 45.043989 45.073268 45.097742 45.117379 45.132148
45.142031 45.147012 45.147086 45.142252 45.132518 45.117901 45.098419 45.074104
45.044989 45.011121 44.972543 44.929318 44.881502 44.829170 44.772388 44.711247
44.645822 44.576214 44.502510 44.424821 44.343241 44.257893 44.168876 44.076321
43.980334 43.881052 43.778586 43.673078 43.564641 43.453421 43.339534 43.223126
43.104315 42.983248 42.860040 42.734838 42.607754 42.478934 42.348486 42.216552
42.083236 41.948676 41.812968 41.676245 41.538599 41.400155 41.260997 41.121243
40.980969 40.840287 40.699263 40.558001 40.416559 40.275032 40.133471 39.991959
39.850540 39.709289 39.568240 39.427459 39.286973 39.146839 39.007074 38.867728
38.728811 38.590361 38.452384 38.314910 38.177936 38.041485 37.905548 37.770141
37.635249 37.500879 37.367013 37.233651 37.100771 36.968366 36.836409 36.704890
36.573777 36.443055 36.312690 36.182661 36.052934 35.923484 35.794273 35.665275
35.536450 35.407769 35.279193 35.150690 35.022222
35.400000 35.548615 35.697268 35.845997 35.994837 36.143829 36.293004 36.442403
36.592054 36.741996 36.892255 37.042866 37.193852 37.345247 37.497065 37.649339
37.802078 37.955311 38.109039 38.263286 38.418049 38.573345 38.729163 38.885515
39.042382 39.199768 39.357647 39.516015 39.674837 39.834102 39.993765 40.153807
40.314172 40.474834 40.635726 40.796814 40.958020 41.119300 41.280567 41.441768
41.602804 41.763613 41.924086 42.084152 42.243693 42.402627 42.560827 42.718203
42.874619 43.029976 43.184130 43.336975 43.488361 43.638173 43.786256 43.932490
44.076714 44.218803 44.358594 44.495958 44.630730 44.762780 44.891941 45.018084
45.141043 45.260689 45.376862 45.489433 45.598247 45.703181 45.804085 45.900842
45.993312 46.081384 46.164928 46.243840 46.318004 46.387327 46.451703 46.511050
46.565278 46.614317 46.658091 46.696544 46.729616 46.757263 46.779443 46.796128
46.807290 46.812917 46.813000 46.807539 46.796544 46.780030 46.758024 46.730556
46.697670 46.659410 46.615837 46.567008 46.513001 46.453887 46.389757 46.320694
46.246805 46.168183 46.084948 45.997204 45.905081 45.808692 45.708178 45.603657
45.495281 45.383174 45.267492 45.148364 45.025953 44.900389 44.771837 44.640430
44.506336 44.369684 44.230642 44.089339 43.945941 43.800573 43.653397 43.504534
43.354142 43.202334 43.049264 42.895038 42.739802 42.583655 42.426735 42.269132
42.110975 41.952346 41.793366 41.634105 41.474674 41.315136 41.155591 40.996091
40.836726 40.677541 40.518613 40.359978 40.201703 40.043815 39.886372 39.729390
39.572918 39.416964 39.261567 39.106728 38.952476 38.798804 38.645735 38.493253
38.341372 38.190072 38.039358 37.889205 37.739611 37.590546 37.442001 37.293943
37.146356 36.999204 36.852466 36.706102 36.560087 36.414379 36.268950 36.123756
35.978763 35.833930 35.689220 35.544589 35.400000
35.777778 35.942990 36.108245 36.273584 36.439051 36.604685 36.770529 36.936618
37.102997 37.269696 37.436758 37.604209 37.772089 37.940419 38.109235 38.278553
38.448406 38.618802 38.789768 38.961307 39.133440 39.306159 39.479483 39.653394
39.827902 40.002982 40.178635 40.354827 40.531552 40.708762 40.886444 41.064541
41.243029 41.421839 41.600938 41.780246 41.959720 42.139268 42.318835 42.498320
42.677657 42.856732 43.035470 43.213744 43.391470 43.568510 43.744769 43.920100
44.094397 44.267505 44.439308 44.609643 44.778386 44.945365 45.110450 45.273463
45.434269 45.592684 45.748567 45.901735 46.052041 46.199301 46.343368 46.484057
46.621221 46.754679 46.884286 47.009865 47.131275 47.248344 47.360938 47.468895
47.572085 47.670358 47.763593 47.851652 47.934425 48.011786 48.083638 48.149871
48.210399 48.265129 48.313990 48.356907 48.393823 48.424680 48.449439 48.468061
48.480521 48.486801 48.486893 48.480797 48.468523 48.450091 48.425526 48.394868
48.358158 48.315456 48.266817 48.212321 48.152039 48.086065 48.014486 47.937413
47.854946 47.767211 47.674318 47.576409 47.473604 47.366057 47.253896 47.137286
47.016363 46.891299 46.762237 46.629355 46.492799 46.352753 46.209364 46.062818
45.913264 45.760887 45.605836 45.448294 45.288406 45.126354 44.962276 44.796352
44.628713 44.459531 44.288932 44.117081 43.944093 43.770128 43.595290 43.419729
43.243541 43.066864 42.889784 42.712430 42.534876 42.357239 42.179583 42.002015
41.824586 41.647392 41.470476 41.293918 41.117753 40.942051 40.766834 40.592161
40.418047 40.244540 40.071644 39.899396 39.727793 39.556863 39.386593 39.217002
39.048072 38.879811 38.712195 38.545223 38.378867 38.213117 38.047940 37.883321
37.719221 37.555618 37.392470 37.229751 37.067416 36.905433 36.743756 36.582348
36.421161 36.260157 36.099288 35.938510 35.777778
36.155556 36.337391 36.519273 36.701250 36.883367 37.065672 37.248207 37.431021
37.614151 37.797644 37.981533 38.165864 38.350664 38.535974 38.721817 38.908230
39.095226 39.282841 39.471080 39.659971 39.849511 40.039724 40.230594 40.422140
40.614337 40.807193 41.000674 41.194781 41.389466 41.584721 41.780488 41.976747
42.173430 42.370504 42.567890 42.765544 42.963372 43.161322 43.359285 43.557197
43.754938 43.952431 44.149543 44.346186 44.542215 44.737530 44.931974 45.125436
45.317748 45.508789 45.698381 45.886392 46.072637 46.256974 46.439212 46.619200
46.796740 46.971678 47.143810 47.312977 47.478974 47.641639 47.800767 47.956194
48.107717 48.255173 48.398364 48.537130 48.671279 48.800656 48.925076 49.044392
49.158431 49.267053 49.370098 49.467438 49.558925 49.644445 49.723866 49.797087
49.863995 49.924502 49.978515 50.025963 50.066773 50.100889 50.128259 50.148848
50.162623 50.169566 50.169667 50.162927 50.149357 50.128977 50.101820 50.067922
50.027340 49.980127 49.926360 49.866109 49.799472 49.726536 49.647415 49.562212
49.471061 49.374077 49.271409 49.163186 49.049572 48.930705 48.806762 48.677890
48.544277 48.406077 48.263485 48.116662 47.965809 47.811088 47.652706 47.490826
47.325656 47.157359 46.986141 46.812164 46.635633 46.456702 46.275573 46.092395
45.907364 45.720620 45.532353 45.342694 45.151823 44.959862 44.766982 44.573293
44.378956 44.184069 43.988781 43.793180 43.597400 43.401520 43.205661 43.009887
42.814310 42.618981 42.423997 42.229400 42.035273 41.841647 41.648593 41.456130
41.264318 41.073164 40.882718 40.692977 40.503978 40.315711 40.128202 39.941433
39.755418 39.570133 39.385583 39.201736 39.018589 38.836104 38.654269 38.473043
38.292405 38.112310 37.932732 37.753621 37.574945 37.396653 37.218708 37.041056
36.863655 36.686453 36.509403 36.332454 36.155556
36.533333 36.731818 36.930356 37.128996 37.327794 37.526796 37.726057 37.925620
38.125538 38.325851 38.526609 38.727847 38.929612 39.131932 39.334852 39.538391
39.742590 39.947459 40.153034 40.359316 40.566335 40.774082 40.982579 41.191807
41.401780 41.612466 41.823870 42.035951 42.248702 42.462068 42.676034 42.890530
43.105530 43.320952 43.536756 43.752847 43.969173 44.185624 44.402135 44.618584
44.834891 45.050919 45.266578 45.481716 45.696230 45.909954 46.122772 46.334508
46.545032 46.754156 46.961741 47.167587 47.371543 47.573402 47.773005 47.970136
48.164627 48.356259 48.544857 48.730197 48.912102 49.090346 49.264749 49.435085
49.601176 49.762799 49.919777 50.071894 50.218976 50.360816 50.497246 50.628069
50.753127 50.872236 50.985247 51.091992 51.192335 51.286125 51.373239 51.453544
51.526936 51.593301 51.652551 51.704595 51.749362 51.786783 51.816809 51.839392
51.854502 51.862118 51.862228 51.854834 51.839947 51.817591 51.787798 51.750616
51.706096 51.654310 51.595328 51.529244 51.456146 51.376151 51.289364 51.195922
51.095945 50.989588 50.876988 50.758315 50.633719 50.503387 50.367476 50.226188
50.079689 49.928190 49.771865 49.610933 49.445572 49.276006 49.102416 48.925029
48.744026 48.559634 48.372034 48.181450 47.988058 47.792080 47.593686 47.393091
47.190458 46.985995 46.779855 46.572238 46.363285 46.153188 45.942074 45.730124
45.517455 45.304233 45.090563 44.876599 44.662431 44.448200 44.233983 44.019907
43.806036 43.592482 43.379297 43.166579 42.954367 42.742744 42.531738 42.321419
42.111802 41.902944 41.694851 41.487565 41.281082 41.075433 40.870605 40.666616
40.463445 40.261099 40.059550 39.858795 39.658798 39.459549 39.261004 39.063144
38.865922 38.669312 38.473260 38.277735 38.082681 37.888058 37.693810 37.499893
37.306247 37.112825 36.919567 36.726423 36.533333
36.911111 37.126275 37.341495 37.556831 37.772336 37.988069 38.204081 38.420432
38.637165 38.854340 39.071995 39.290187 39.508947 39.728330 39.948359 40.169083
40.390518 40.612707 40.835656 41.059403 41.283944 41.509308 41.735479 41.962479
42.190282 42.418897 42.648286 42.878449 43.109334 43.340930 43.573170 43.806032
44.039435 44.273343 44.507661 44.742338 44.977265 45.212378 45.447551 45.682707
45.917703 46.152450 46.386789 46.620614 46.853755 47.086091 47.317436 47.547657
47.776554 48.003981 48.229728 48.453634 48.675478 48.895091 49.112242 49.326751
49.538381 49.746945 49.952199 50.153951 50.351954 50.546013 50.735881 50.921361
51.102207 51.278224 51.449172 51.614858 51.775050 51.929560 52.078168 52.220693
52.356928 52.486703 52.609825 52.726139 52.835468 52.937672 53.032594 53.120110
53.200084 53.272411 53.336978 53.393698 53.442484 53.483269 53.515990 53.540604
53.557071 53.565371 53.565490 53.557431 53.541206 53.516838 53.484369 53.443843
53.395325 53.338883 53.274607 53.202584 53.122929 53.035749 52.941183 52.839353
52.730421 52.614527 52.491851 52.362547 52.226814 52.084819 51.936775 51.782861
51.623301 51.458284 51.288044 51.112775 50.932719 50.748074 50.559086 50.365954
50.168927 49.968203 49.764029 49.556600 49.346162 49.132901 48.917059 48.698815
48.478404 48.255995 48.031813 47.806018 47.578823 47.350376 47.120878 46.890463
46.659320 46.427570 46.195386 45.962875 45.730196 45.497441 45.264755 45.032213
44.799947 44.568017 44.336538 44.105559 43.875177 43.645428 43.416394 43.188100
42.960612 42.733940 42.508140 42.283210 42.059190 41.836069 41.613874 41.392584
41.172214 40.952735 40.734149 40.516421 40.299542 40.083468 39.868183 39.653637
39.439805 39.226630 39.014081 38.802099 38.590642 38.379651 38.169078 37.958861
37.748947 37.539274 37.329785 37.120417 36.911111
37.288889 37.520761 37.752696 37.984755 38.217002 38.449494 38.682297 38.915461
39.149053 39.383117 39.617717 39.852892 40.088702 40.325178 40.562376 40.800319
41.039058 41.278605 41.519004 41.760258 42.002404 42.245432 42.489370 42.734196
42.979930 43.226535 43.474019 43.722334 43.971475 44.221378 44.472026 44.723341
44.975291 45.227782 45.480768 45.734139 45.987834 46.241727 46.495741 46.749733
47.003610 47.257213 47.510435 47.763098 48.015080 48.266188 48.516284 48.765161
49.012666 49.258576 49.502726 49.744882 49.984864 50.222427 50.457380 50.689470
50.918497 51.144198 51.366368 51.584740 51.799102 52.009185 52.214775 52.415604
52.611458 52.802072 52.987233 53.166685 53.340219 53.507590 53.668595 53.823001
53.970617 54.111224 54.244646 54.370680 54.489164 54.599917 54.702795 54.797637
54.884319 54.962705 55.032690 55.094165 55.147047 55.191252 55.226721 55.253398
55.271248 55.280243 55.280372 55.271635 55.254046 55.227634 55.192436 55.148510
55.095917 55.034743 54.965070 54.887011 54.800673 54.706193 54.603697 54.493348
54.375291 54.249709 54.116767 53.976669 53.829591 53.675757 53.515358 53.348630
53.175775 52.997044 52.812644 52.622836 52.427833 52.227902 52.023259 51.814174
51.600863 51.383598 51.162591 50.938111 50.710366 50.479621 50.246075 50.009987
49.771548 49.531005 49.288538 49.044386 48.798713 48.551747 48.303638 48.054599
47.804768 47.554339 47.303438 47.052242 46.800859 46.549454 46.298117 46.046994
45.796163 45.545752 45.295822 45.046486 44.797789 44.549828 44.302634 44.056288
43.810805 43.566253 43.322634 43.079999 42.838340 42.597693 42.358039 42.119401
41.881750 41.645095 41.409399 41.174660 40.940832 40.707902 40.475817 40.244555
40.014058 39.784294 39.555199 39.326734 39.098834 38.871449 38.644514 38.417972
38.191757 37.965808 37.740057 37.514440 37.288889
37.666667 37.915279 38.163959 38.412776 38.661793 38.911083 39.160703 39.410725
39.661203 39.912204 40.163778 40.415990 40.668880 40.922510 41.176911 41.432141
41.688221 41.945201 42.203092 42.461937 42.721735 42.982520 43.244279 43.507035
43.770760 44.035469 44.301118 44.567710 44.835184 45.103531 45.372674 45.642589
45.913184 46.184418 46.456182 46.728420 47.001005 47.273863 47.546850 47.819877
48.092779 48.365451 48.637712 48.909437 49.180428 49.450545 49.719572 49.987351
50.253653 50.518304 50.781059 51.041729 51.300057 51.555843 51.808816 52.058764
52.305409 52.548530 52.787842 53.023116 53.254063 53.480451 53.701990 53.918445
54.129529 54.335009 54.534602 54.728079 54.915167 55.095644 55.269247 55.435765
55.594951 55.746605 55.890498 56.026446 56.154241 56.273717 56.384687 56.487005
56.580511 56.665081 56.740579 56.806906 56.863955 56.911651 56.949916 56.978700
56.997957 57.007662 57.007800 56.998372 56.979394 56.950895 56.912920 56.865524
56.808784 56.742778 56.667614 56.583396 56.490258 56.388327 56.277767 56.158724
56.031386 55.895922 55.752543 55.601434 55.442826 55.276920 55.103966 54.924177
54.737817 54.545111 54.346334 54.141716 53.931543 53.716049 53.495525 53.270206
53.040385 52.806295 52.568230 52.326416 52.081144 51.832635 51.581172 51.326965
51.070289 50.811345 50.550395 50.287626 50.023287 49.757552 49.490655 49.222754
48.954067 48.684735 48.414961 48.144867 47.874638 47.604381 47.334262 47.064371
46.794856 46.525789 46.257300 45.989446 45.722338 45.456016 45.190574 44.926039
44.662486 44.399926 44.138421 43.877967 43.618609 43.360333 43.103169 42.847089
42.592110 42.338196 42.085349 41.833523 41.582710 41.332856 41.083940 40.835902
40.588712 40.342304 40.096637 39.851643 39.607272 39.363453 39.120129 38.877227
38.634684 38.392426 38.150386 37.908490 37.666667
38.044444 38.309829 38.575288 38.840892 39.106718 39.372834 39.639314 39.906222
40.173632 40.441601 40.710202 40.979482 41.249511 41.520329 41.792000 42.064553
42.338049 42.612503 42.887969 43.164453 43.441996 43.720592 44.000274 44.281020
44.562852 44.845733 45.129673 45.414618 45.700565 45.987442 46.275232 46.563846
46.853250 47.143338 47.434058 47.725285 48.016950 48.308909 48.601075 48.893284
49.185432 49.477334 49.768867 50.059828 50.350075 50.639387 50.927604 51.214487
51.499857 51.783459 52.065099 52.344506 52.621470 52.895708 53.166997 53.435041
53.699607 53.960390 54.217147 54.469569 54.717406 54.960345 55.198134 55.430460
55.657070 55.877656 56.091967 56.299703 56.500618 56.694425 56.880886 57.059726
57.230723 57.393619 57.548206 57.694247 57.831552 57.959908 58.079145 58.189077