# vtk DataFile Version 3.0
Steady-state temperature (Jacobi)
ASCII
DATASET STRUCTURED_POINTS
DIMENSIONS 181 181 1
ORIGIN 0.0 0.0 0.0
SPACING 0.05 0.05 1.0
POINT_DATA 32761
SCALARS Temperature float 1
LOOKUP_TABLE default
32.000000 32.000000 32.000000 32.000000 32.000000 32.000000 32.000000 32.000000
32.000000 32.000000 32.000000 32.000000 32.000000 32.000000 32.000000 32.000000
32.000000 32.000000 32.000000 32.000000 32.000000 32.000000 32.000000 32.000000
32.000000 32.000000 32.000000 32.000000 32.000000 32.000000 32.000000 32.000000
32.000000 32.000000 32.000000 32.000000 32.000000 32.000000 32.000000 32.000000
32.000000 32.000000 32.000000 32.000000 32.000000 32.000000 32.000000 32.000000
32.000000 32.000000 32.000000 32.000000 32.000000 32.000000 32.000000 32.000000
32.000000 32.000000 32.000000 32.000000 32.000000 32.000000 32.000000 32.000000
32.000000 32.000000 32.000000 32.000000 32.000000 32.000000 32.000000 32.000000
32.000000 32.000000 32.000000 32.000000 32.000000 32.000000 32.000000 32.000000
32.000000 32.000000 32.000000 32.000000 32.000000 32.000000 32.000000 32.000000
32.000000 32.000000 32.000000 32.000000 32.000000 32.000000 32.000000 32.000000
32.000000 32.000000 32.000000 32.000000 32.000000 32.000000 32.000000 32.000000
32.000000 32.000000 32.000000 32.000000 32.000000 32.000000 32.000000 32.000000
32.000000 32.000000 32.000000 32.000000 32.000000 32.000000 32.000000 32.000000
32.000000 32.000000 32.000000 32.000000 32.000000 32.000000 32.000000 32.000000
32.000000 32.000000 32.000000 32.000000 32.000000 32.000000 32.000000 32.000000
32.000000 32.000000 32.000000 32.000000 32.000000 32.000000 32.000000 32.000000
32.000000 32.000000 32.000000 32.000000 32.000000 32.000000 32.000000 32.000000
32.000000 32.000000 32.000000 32.000000 32.000000 32.000000 32.000000 32.000000
32.000000 32.000000 32.000000 32.000000 32.000000 32.000000 32.000000 32.000000
32.000000 32.000000 32.000000 32.000000 32.000000 32.000000 32.000000 32.000000
32.000000 32.000000 32.000000 32.000000 32.000000
32.377778 32.396660 32.415544 32.434432 32.453326 32.472228 32.491139 32.510063
32.529000 32.547952 32.566920 32.585906 32.604911 32.623936 32.642982 32.662049
32.681137 32.700248 32.719380 32.738534 32.757709 32.776903 32.796116 32.815347
32.834592 32.853850 32.873119 32.892395 32.911675 32.930956 32.950232 32.969501
32.988756 33.007992 33.027204 33.046385 33.065528 33.084627 33.103674 33.122660
33.141577 33.160417 33.179169 33.197825 33.216373 33.234803 33.253104 33.271265
33.289274 33.307118 33.324785 33.342262 33.359535 33.376592 33.393419 33.410001
33.426325 33.442376 33.458140 33.473602 33.488747 33.503561 33.518029 33.532138
33.545871 33.559215 33.572155 33.584678 33.596770 33.608417 33.619605 33.630323
33.640557 33.650296 33.659528 33.668241 33.676426 33.684073 33.691172 33.697713
33.703690 33.709095 33.713920 33.718160 33.721810 33.724864 33.727320 33.729173
33.730422 33.731065 33.731102 33.730532 33.729356 33.727576 33.725194 33.722214
33.718640 33.714476 33.709727 33.704400 33.698503 33.692041 33.685024 33.677461
33.669361 33.660733 33.651590 33.641942 33.631800 33.621177 33.610086 33.598538
33.586549 33.574131 33.561298 33.548064 33.534444 33.520452 33.506103 33.491412
33.476393 33.461061 33.445430 33.429516 33.413333 33.396896 33.380218 33.363313
33.346197 33.328880 33.311379 33.293705 33.275871 33.257888 33.239771 33.221528
33.203173 33.184715 33.166166 33.147534 33.128829 33.110060 33.091237 33.072366
33.053456 33.034513 33.015546 32.996558 32.977558 32.958549 32.939538 32.920528
32.901525 32.882530 32.863549 32.844583 32.825636 32.806709 32.787804 32.768924
32.750069 32.731239 32.712437 32.693661 32.674912 32.656190 32.637494 32.618823
32.600177 32.581554 32.562954 32.544374 32.525813 32.507270 32.488742 32.470227
32.451723 32.433229 32.414741 32.396258 32.377778
32.755556 32.793320 32.831090 32.868867 32.906656 32.944461 32.982286 33.020135
33.058010 33.095916 33.133854 33.171828 33.209840 33.247892 33.285986 33.324122
33.362303 33.400527 33.438795 33.477106 33.515459 33.553851 33.592282 33.630746
33.669242 33.707764 33.746307 33.784864 33.823431 33.861998 33.900559 33.939102
33.977620 34.016100 34.054532 34.092903 34.131199 34.169406 34.207509 34.245491
34.283337 34.321026 34.358543 34.395865 34.432974 34.469846 34.506462 34.542796
34.578827 34.614528 34.649876 34.684844 34.719406 34.753534 34.787203 34.820382
34.853045 34.885161 34.916704 34.947643 34.977949 35.007592 35.036545 35.064776
35.092257 35.118960 35.144855 35.169915 35.194112 35.217418 35.239809 35.261257
35.281738 35.301227 35.319702 35.337140 35.353521 35.368823 35.383029 35.396121
35.408082 35.418898 35.428555 35.437041 35.444345 35.450457 35.455371 35.459080
35.461580 35.462867 35.462940 35.461799 35.459446 35.455883 35.451117 35.445153
35.438000 35.429666 35.420162 35.409502 35.397699 35.384768 35.370725 35.355589
35.339378 35.322113 35.303815 35.284507 35.264211 35.242952 35.220756 35.197648
35.173655 35.148805 35.123124 35.096643 35.069388 35.041389 35.012676 34.983278
34.953225 34.922546 34.891269 34.859427 34.827045 34.794155 34.760784 34.726961
34.692713 34.658067 34.623050 34.587688 34.552006 34.516029 34.479780 34.443284
34.406561 34.369634 34.332523 34.295248 34.257828 34.220281 34.182624 34.144873
34.107043 34.069150 34.031206 33.993224 33.955215 33.917192 33.879162 33.841137
33.803123 33.765128 33.727159 33.689223 33.651323 33.613465 33.575652 33.537888
33.500173 33.462512 33.424903 33.387349 33.349848 33.312401 33.275007 33.237663
33.200369 33.163122 33.125920 33.088759 33.051635 33.014547 32.977489 32.940459
32.903450 32.866461 32.829485 32.792518 32.755556
33.133333 33.189984 33.246640 33.303309 33.359996 33.416707 33.473448 33.530225
33.587042 33.643904 33.700816 33.757782 33.814805 33.871888 33.929035 33.986246
34.043523 34.100867 34.158276 34.215752 34.273290 34.330889 34.388545 34.446254
34.504009 34.561804 34.619632 34.677483 34.735348 34.793215 34.851072 34.908906
34.966700 35.024441 35.082109 35.139687 35.197153 35.254487 35.311665 35.368665
35.425459 35.482022 35.538324 35.594337 35.650029 35.705370 35.760324 35.814860
35.868938 35.922525 35.975581 36.028069 36.079947 36.131177 36.181715 36.231522
36.280553 36.328767 36.376118 36.422565 36.468061 36.512565 36.556031 36.598415
36.639674 36.679764 36.718643 36.756269 36.792598 36.827592 36.861210 36.893414
36.924166 36.953429 36.981170 37.007354 37.031950 37.054928 37.076259 37.095917
37.113878 37.130119 37.144620 37.157362 37.168329 37.177508 37.184887 37.190457
37.194210 37.196142 37.196251 37.194538 37.191004 37.185655 37.178498 37.169542
37.158800 37.146285 37.132015 37.116007 37.098283 37.078866 37.057780 37.035051
37.010710 36.984785 36.957310 36.928318 36.897844 36.865924 36.832597 36.797901
36.761878 36.724566 36.686010 36.646250 36.605331 36.563296 36.520189 36.476053
36.430935 36.384878 36.337926 36.290123 36.241515 36.192142 36.142049 36.091277
36.039869 35.987864 35.935304 35.882227 35.828671 35.774672 35.720268 35.665491
35.610378 35.554957 35.499263 35.443323 35.387167 35.330821 35.274311 35.217661
35.160895 35.104033 35.047096 34.990103 34.933072 34.876018 34.818958 34.761903
34.704867 34.647861 34.590895 34.533977 34.477116 34.420317 34.363588 34.306931
34.250351 34.193849 34.137429 34.081089 34.024832 33.968655 33.912558 33.856538
33.800592 33.744717 33.688909 33.633163 33.577475 33.521839 33.466250 33.410701
33.355186 33.299698 33.244232 33.188779 33.133333
33.511111 33.586650 33.662198 33.737762 33.813350 33.888971 33.964633 34.040341
34.116104 34.191928 34.267819 34.343782 34.419822 34.495944 34.572150 34.648443
34.724826 34.801297 34.877859 34.954508 35.031244 35.108060 35.184955 35.261920
35.338949 35.416033 35.493162 35.570323 35.647505 35.724690 35.801865 35.879009
35.956105 36.033128 36.110058 36.186867 36.263532 36.340020 36.416305 36.492350
36.568126 36.643593 36.718716 36.793454 36.867768 36.941612 37.014945 37.087718
37.159886 37.231398 37.302205 37.372254 37.441493 37.509866 37.577321 37.643799
37.709245 37.773600 37.836807 37.898806 37.959540 38.018948 38.076974 38.133555
38.188637 38.242159 38.294065 38.344297 38.392802 38.439523 38.484409 38.527406
38.568466 38.607539 38.644579 38.679541 38.712383 38.743064 38.771548 38.797797
38.821781 38.843467 38.862831 38.879845 38.894490 38.906747 38.916600 38.924037
38.929049 38.931629 38.931775 38.929486 38.924767 38.917624 38.908066 38.896107
38.881761 38.865050 38.845994 38.824619 38.800951 38.775022 38.746865 38.716517
38.684013 38.649398 38.612711 38.574000 38.533310 38.490691 38.446193 38.399870
38.351773 38.301959 38.250482 38.197402 38.142773 38.086657 38.029109 37.970192
37.909963 37.848482 37.785808 37.722001 37.657118 37.591219 37.524358 37.456595
37.387983 37.318578 37.248432 37.177599 37.106128 37.034070 36.961470 36.888378
36.814836 36.740889 36.666576 36.591939 36.517014 36.441840 36.366446 36.290870
36.215139 36.139284 36.063329 35.987303 35.911225 35.835121 35.759008 35.682906
35.606829 35.530795 35.454815 35.378902 35.303064 35.227313 35.151653 35.076093
35.000635 34.925285 34.850042 34.774910 34.699888 34.624974 34.550167 34.475464
34.400860 34.326352 34.251933 34.177599 34.103341 34.029154 33.955029 33.880958
33.806933 33.732945 33.658985 33.585043 33.511111
33.888889 33.983322 34.077765 34.172229 34.266723 34.361259 34.455846 34.550492
34.645207 34.740000 34.834876 34.929844 35.024909 35.120078 35.215353 35.310739
35.406237 35.501849 35.597574 35.693412 35.789357 35.885408 35.981557 36.077798
36.174119 36.270513 36.366963 36.463459 36.559980 36.656511 36.753029 36.849513
36.945937 37.042276 37.138499 37.234577 37.330473 37.426156 37.521583 37.616718
37.711515 37.805932 37.899919 37.993431 38.086411 38.178811 38.270571 38.361637
38.451946 38.541440 38.630052 38.717720 38.804376 38.889954 38.974382 39.057593
39.139512 39.220071 39.299193 39.376807 39.452838 39.527213 39.599857 39.670698
39.739661 39.806674 39.871664 39.934562 39.995296 40.053800 40.110005 40.163848
40.215264 40.264194 40.310578 40.354362 40.395490 40.433914 40.469585 40.502459
40.532495 40.559655 40.583905 40.605215 40.623556 40.638907 40.651247 40.660561
40.666837 40.670068 40.670250 40.667383 40.661472 40.652525 40.640554 40.625575
40.607609 40.586678 40.562812 40.536040 40.506399 40.473925 40.438662 40.400654
40.359949 40.316598 40.270655 40.222177 40.171223 40.117853 40.062133 40.004126
39.943902 39.881526 39.817073 39.750611 39.682215 39.611955 39.539909 39.466147
39.390747 39.313780 39.235325 39.155451 39.074235 38.991747 38.908061 38.823246
38.737374 38.650510 38.562725 38.474080 38.384641 38.294469 38.203626 38.112166
38.020150 37.927627 37.834652 37.741273 37.647539 37.553492 37.459179 37.364637
37.269907 37.175022 37.080018 36.984925 36.889774 36.794589 36.699399 36.604222
36.509082 36.413996 36.318981 36.224050 36.129219 36.034496 35.939891 35.845411
35.751063 35.656848 35.562773 35.468836 35.375038 35.281377 35.187852 35.094456
35.001188 34.908038 34.815003 34.722073 34.629241 34.536497 34.443832 34.351235
34.258695 34.166202 34.073745 33.981311 33.888889
34.266667 34.379998 34.493343 34.606712 34.720120 34.833576 34.947095 35.060686
35.174361 35.288129 35.402000 35.515982 35.630083 35.744308 35.858665 35.973155
36.087783 36.202549 36.317454 36.432496 36.547671 36.662974 36.778399 36.893936
37.009575 37.125301 37.241103 37.356958 37.472851 37.588757 37.704654 37.820511
37.936304 38.051995 38.167555 38.282941 38.398117 38.513037 38.627659 38.741931
38.855805 38.969224 39.082135 39.194475 39.306187 39.417201 39.527455 39.636876
39.745396 39.852937 39.959426 40.064783 40.168931 40.271784 40.373262 40.473278
40.571749 40.668585 40.763701 40.857005 40.948411 41.037828 41.125169 41.210342
41.293262 41.373839 41.451987 41.527620 41.600655 41.671007 41.738599 41.803350
41.865186 41.924032 41.979818 42.032476 42.081943 42.128156 42.171061 42.210600
42.246728 42.279396 42.308564 42.334195 42.356257 42.374721 42.389564 42.400767
42.408316 42.412202 42.412420 42.408971 42.401860 42.391097 42.376696 42.358678
42.337066 42.311889 42.283180 42.250979 42.215324 42.176265 42.133850 42.088135
42.039176 41.987037 41.931780 41.873476 41.812194 41.748011 41.681000 41.611244
41.538820 41.463815 41.386310 41.306395 41.224154 41.139678 41.053053 40.964373
40.873723 40.781197 40.686880 40.590866 40.493238 40.394089 40.293502 40.191564
40.088357 39.983966 39.878467 39.771944 39.664469 39.556120 39.446966 39.337080
39.226525 39.115371 39.003676 38.891502 38.778903 38.665937 38.552652 38.439100
38.325323 38.211368 38.097272 37.983076 37.868811 37.754513 37.640208 37.525928
37.411692 37.297528 37.183450 37.069479 36.955628 36.841913 36.728341 36.614923
36.501665 36.388572 36.275647 36.162891 36.050304 35.937885 35.825628 35.713532
35.601587 35.489790 35.378129 35.266597 35.155183 35.043876 34.932664 34.821536
34.710477 34.599474 34.488515 34.377583 34.266667
34.644444 34.776682 34.908934 35.041216 35.173542 35.305928 35.438386 35.570931
35.703573 35.836327 35.969202 36.102209 36.235356 36.368653 36.502103 36.635713
36.769486 36.903425 37.037527 37.171794 37.306219 37.440799 37.575524 37.710385
37.845367 37.980459 38.115640 38.250892 38.386190 38.521512 38.656825 38.792101
38.927304 39.062398 39.197339 39.332089 39.466595 39.600813 39.734685 39.868158
40.001169 40.133659 40.265558 40.396801 40.527311 40.657018 40.785839 40.913698
41.040505 41.166179 41.290627 41.413761 41.535484 41.655704 41.774319 41.891234
42.006344 42.119552 42.230751 42.339840 42.446711 42.551265 42.653391 42.752991
42.849956 42.944187 43.035578 43.124034 43.209452 43.291737 43.370794 43.446532
43.518860 43.587695 43.652950 43.714549 43.772415 43.826477 43.876667 43.922924
43.965188 44.003407 44.037530 44.067517 44.093326 44.114928 44.132292 44.145398
44.154230 44.158775 44.159029 44.154993 44.146672 44.134079 44.117230 44.096148
44.070862 44.041405 44.007818 43.970143 43.928430 43.882734 43.833114 43.779632
43.722359 43.661364 43.596727 43.528524 43.456842 43.381765 43.303387 43.221796
43.137091 43.049367 42.958726 42.865266 42.769093 42.670306 42.569015 42.465321
42.359332 42.251149 42.140883 42.028633 41.914506 41.798602 41.681027 41.561874
41.441248 41.319240 41.195949 41.071462 40.945873 40.819265 40.691727 40.563336
40.434175 40.304315 40.173834 40.042797 39.911274 39.779324 39.647012 39.514390
39.381516 39.248436 39.115201 38.981851 38.848431 38.714975 38.581520 38.448094
38.314730 38.181450 38.048280 37.915237 37.782341 37.649605 37.517043 37.384663
37.252475 37.120482 36.988690 36.857098 36.725707 36.594513 36.463515 36.332703
36.202074 36.071616 35.941321 35.811177 35.681174 35.551296 35.421532 35.291865
35.162280 35.032762 34.903295 34.773861 34.644444
35.022222 35.173372 35.324540 35.475742 35.626996 35.778318 35.929725 36.081231
36.232853 36.384602 36.536494 36.688537 36.840746 36.993126 37.145687 37.298433
37.451371 37.604500 37.757824 37.911337 38.065039 38.218920 38.372975 38.527188
38.681550 38.836039 38.990639 39.145325 39.300073 39.454851 39.609630 39.764371
39.919039 40.073586 40.227971 40.382140 40.536044 40.689620 40.842814 40.995556
41.147781 41.299415 41.450385 41.600609 41.750007 41.898490 42.045971 42.192355
42.337548 42.481448 42.623956 42.764964 42.904368 43.042053 43.177914 43.311830
43.443691 43.573375 43.700768 43.825746 43.948195 44.067988 44.185012 44.299140
44.410259 44.518246 44.622987 44.724363 44.822265 44.916577 45.007195 45.094008
45.176918 45.255823 45.330630 45.401244 45.467583 45.529561 45.587102 45.640133
45.688589 45.732406 45.771530 45.805909 45.835501 45.860267 45.880176 45.895203
45.905327 45.910538 45.910828 45.906199 45.896657 45.882216 45.862895 45.838722
45.809728 45.775954 45.737442 45.694245 45.646419 45.594028 45.537138 45.475823
45.410161 45.340236 45.266135 45.187952 45.105779 45.019722 44.929878 44.836360
44.739272 44.638731 44.534848 44.427742 44.317527 44.204328 44.088259 43.969446
43.848005 43.724063 43.597734 43.469145 43.338408 43.205648 43.070975 42.934508
42.796357 42.656636 42.515449 42.372906 42.229105 42.084151 41.938134 41.791156
41.643299 41.494656 41.345306 41.195332 41.044806 40.893806 40.742394 40.590641
40.438603 40.286342 40.133908 39.981354 39.828723 39.676062 39.523406 39.370795
39.218257 39.065826 38.913524 38.761376 38.609400 38.457616 38.306033 38.154667
38.003522 37.852609 37.701926 37.551480 37.401266 37.251283 37.101524 36.951985
36.802656 36.653527 36.504587 36.355823 36.207220 36.058764 35.910438 35.762226
35.614108 35.466069 35.318087 35.170145 35.022222
35.400000 35.570071 35.740162 35.910293 36.080483 36.250751 36.421116 36.591595
36.762205 36.932964 37.103883 37.274979 37.446262 37.617744 37.789432 37.961335
38.133456 38.305801 38.478367 38.651155 38.824159 38.997375 39.170789 39.344393
39.518167 39.692096 39.866155 40.040322 40.214564 40.388853 40.563148 40.737413
40.911601 41.085668 41.259558 41.433219 41.606587 41.779602 41.952191 42.124286
42.295807 42.466676 42.636804 42.806106 42.974484 43.141847 43.308087 43.473106
43.636789 43.799029 43.959706 44.118706 44.275904 44.431179 44.584400 44.735443
44.884172 45.030460 45.174167 45.315164 45.453309 45.588472 45.720511 45.849296
45.974686 46.096552 46.214756 46.329173 46.439668 46.546121 46.648404 46.746400
46.839990 46.929064 47.013512 47.093233 47.168125 47.238099 47.303063 47.362938
47.417646 47.467119 47.511292 47.550110 47.583522 47.611486 47.633965 47.650930
47.662361 47.668243 47.668569 47.663340 47.652564 47.636256 47.614438 47.587141
47.554401 47.516263 47.472777 47.424001 47.370001 47.310845 47.246613 47.177385
47.103252 47.024307 46.940652 46.852388 46.759628 46.662481 46.561069 46.455509
46.345928 46.232451 46.115210 45.994334 45.869961 45.742221 45.611255 45.477195
45.340184 45.200352 45.057842 44.912784 44.765320 44.615576 44.463690 44.309786
44.153998 43.996444 43.837254 43.676539 43.514422 43.351010 43.186419 43.020747
42.854103 42.686578 42.518273 42.349270 42.179663 42.009525 41.838941 41.667977
41.496708 41.325193 41.153498 40.981673 40.809776 40.637850 40.465944 40.294093
40.122339 39.950708 39.779235 39.607941 39.436851 39.265980 39.095347 38.924962
38.754836 38.584973 38.415380 38.246054 38.076998 37.908205 37.739672 37.571388
37.403346 37.235532 37.067935 36.900538 36.733327 36.566282 36.399387 36.232621
36.065964 35.899395 35.732893 35.566435 35.400000
35.777778 35.966779 36.155802 36.344871 36.534006 36.723230 36.912564 37.102027
37.291639 37.481417 37.671380 37.861542 38.051918 38.242517 38.433354 38.624433
38.815763 39.007345 39.199184 39.391273 39.583614 39.776194 39.969007 40.162036
40.355268 40.548678 40.742246 40.935941 41.129734 41.323585 41.517460 41.711308
41.905087 42.098739 42.292211 42.485436 42.678354 42.870886 43.062963 43.254499
43.445414 43.635612 43.825005 44.013487 44.200960 44.387309 44.572429 44.756196
44.938495 45.119195 45.298174 45.475292 45.650420 45.823413 45.994136 46.162438
46.328180 46.491206 46.651372 46.808523 46.962511 47.113178 47.260378 47.403953
47.543756 47.679632 47.811438 47.939022 48.062244 48.180959 48.295032 48.404326
48.508713 48.608063 48.702260 48.791184 48.874727 48.952782 49.025254 49.092047
49.153080 49.208272 49.257553 49.300859 49.338135 49.369332 49.394411 49.413337
49.426089 49.432650 49.433012 49.427176 49.415150 49.396953 49.372608 49.342151
49.305620 49.263069 49.214550 49.160132 49.099885 49.033889 48.962229 48.885001
48.802302 48.714240 48.620923 48.522472 48.419006 48.310655 48.197548 48.079824
47.957618 47.831077 47.700341 47.565564 47.426890 47.284475 47.138467 46.989025
46.836295 46.680439 46.521601 46.359942 46.195605 46.028746 45.859505 45.688036
45.514472 45.338962 45.161634 44.982628 44.802068 44.620086 44.436798 44.252327
44.066780 43.880273 43.692904 43.504780 43.315990 43.126629 42.936779 42.746525
42.555939 42.365099 42.174064 41.982904 41.791671 41.600422 41.409202 41.218060
41.027030 40.836154 40.645459 40.454978 40.264728 40.074737 39.885015 39.695580
39.506439 39.317601 39.129067 38.940842 38.752919 38.565298 38.377968 38.190925
38.004152 37.817640 37.631371 37.445331 37.259499 37.073856 36.888382 36.703054
36.517848 36.332743 36.147712 35.962733 35.777778
36.155556 36.363496 36.571461 36.779477 36.987568 37.195758 37.404071 37.612531
37.821156 38.029971 38.238991 38.448236 38.657721 38.867460 39.077464 39.287745
39.498306 39.709156 39.920292 40.131719 40.343426 40.555412 40.767660 40.980161
41.192891 41.405835 41.618960 41.832241 42.045639 42.259120 42.472635 42.686142
42.899580 43.112899 43.326029 43.538909 43.751460 43.963608 44.175266 44.386349
44.596759 44.806401 45.015166 45.222951 45.429634 45.635102 45.839224 46.041878
46.242923 46.442228 46.639644 46.835030 47.028230 47.219097 47.407468 47.593189
47.776092 47.956018 48.132795 48.306263 48.476245 48.642579 48.805091 48.963616
49.117981 49.268025 49.413578 49.554480 49.690569 49.821690 49.947687 50.068414
50.183721 50.293474 50.397534 50.495775 50.588072 50.674311 50.754381 50.828181
50.895616 50.956599 51.011051 51.058903 51.100091 51.134563 51.162273 51.183186
51.197275 51.204522 51.204920 51.198468 51.185177 51.165065 51.138161 51.104501
51.064132 51.017109 50.963495 50.903361 50.836789 50.763865 50.684688 50.599357
50.507988 50.410692 50.307600 50.198835 50.084540 49.964849 49.839914 49.709881
49.574910 49.435153 49.290777 49.141942 48.988817 48.831567 48.670366 48.505378
48.336779 48.164734 47.989418 47.810994 47.629636 47.445501 47.258761 47.069569
46.878089 46.684470 46.488869 46.291428 46.092295 45.891604 45.689495 45.486093
45.281528 45.075916 44.869377 44.662014 44.453942 44.245250 44.036042 43.826400
43.616414 43.406157 43.195708 42.985129 42.774491 42.563844 42.353249 42.142748
41.932391 41.722210 41.512246 41.302524 41.093075 40.883916 40.675069 40.466545
40.258358 40.050510 39.843010 39.635854 39.429043 39.222568 39.016426 38.810600
38.605083 38.399855 38.194902 37.990204 37.785740 37.581488 37.377425 37.173525
36.969763 36.766113 36.562547 36.359037 36.155556
36.533333 36.760222 36.987139 37.214112 37.441169 37.668337 37.895642 38.123109
38.350764 38.578627 38.806722 39.035067 39.263682 39.492579 39.721776 39.951279
40.181102 40.411245 40.641716 40.872509 41.103624 41.335051 41.566781 41.798796
42.031080 42.263605 42.496348 42.729272 42.962344 43.195517 43.428750 43.661984
43.895168 44.128233 44.361117 44.593739 44.826027 45.057888 45.289238 45.519975
45.750001 45.979202 46.207472 46.434682 46.660715 46.885433 47.108706 47.330387
47.550335 47.768391 47.984408 48.198216 48.409658 48.618558 48.824750 49.028053
49.228295 49.425289 49.618857 49.808809 49.994967 50.177136 50.355139 50.528781
50.697884 50.862259 51.021729 51.176109 51.325228 51.468908 51.606983 51.739286
51.865660 51.985948 52.100004 52.207684 52.308855 52.403385 52.491158 52.572059
52.645985 52.712838 52.772534 52.824993 52.870148 52.907938 52.938317 52.961243
52.976688 52.984631 52.985064 52.977987 52.963411 52.941358 52.911856 52.874950
52.830687 52.779130 52.720347 52.654420 52.581433 52.501488 52.414687 52.321146
52.220985 52.114337 52.001334 51.882123 51.756852 51.625678 51.488759 51.346266
51.198365 51.045234 50.887046 50.723988 50.556238 50.383985 50.207411 50.026709
49.842060 49.653658 49.461683 49.266328 49.067770 48.866196 48.661781 48.454708
48.245142 48.033261 47.819223 47.603198 47.385336 47.165796 46.944718 46.722253
46.498530 46.273689 46.047847 45.821133 45.593655 45.365528 45.136849 44.907722
44.678231 44.448470 44.218510 43.988435 43.758305 43.528191 43.298143 43.068221
42.838466 42.608925 42.379631 42.150621 41.921918 41.693550 41.465531 41.237882
41.010608 40.783721 40.557219 40.331108 40.105379 39.880030 39.655048 39.430424
39.206141 38.982183 38.758529 38.535161 38.312052 38.089180 37.866517 37.644037
37.421709 37.199506 36.977396 36.755349 36.533333
36.911111 37.156958 37.402837 37.648778 37.894811 38.140968 38.387276 38.633765
38.880461 39.127391 39.374576 39.622041 39.869803 40.117883 40.366293 40.615050
40.864159 41.113631 41.363465 41.613666 41.864225 42.115140 42.366394 42.617977
42.869862 43.122031 43.374448 43.627085 43.879895 44.132840 44.385863 44.638914
44.891924 45.144834 45.397561 45.650033 45.902158 46.153850 46.405004 46.655521
46.905284 47.154183 47.402086 47.648870 47.894393 48.138519 48.381092 48.621966
48.860974 49.097957 49.332739 49.565152 49.795007 50.022129 50.246321 50.467400
50.685163 50.899420 51.109963 51.316599 51.519117 51.717320 51.910998 52.099953
52.283977 52.462874 52.636439 52.804481 52.966801 53.123215 53.273533 53.417578
53.555171 53.686147 53.810340 53.927598 54.037768 54.140715 54.236302 54.324410
54.404922 54.477735 54.542751 54.599887 54.649068 54.690229 54.723315 54.748285
54.765104 54.773754 54.774222 54.766509 54.750629 54.726602 54.694465 54.654260
54.606045 54.549884 54.485855 54.414043 54.334548 54.247473 54.152936 54.051060
53.941982 53.825840 53.702787 53.572976 53.436576 53.293752 53.144687 52.989557
52.828554 52.661864 52.489687 52.312215 52.129656 51.942205 51.750073 51.553459
51.352574 51.147617 50.938798 50.726315 50.510374 50.291168 50.068901 49.843756
49.615932 49.385606 49.152967 48.918183 48.681434 48.442878 48.202683 47.960996
47.717976 47.473756 47.228482 46.982278 46.735274 46.487583 46.239323 45.990592
45.741497 45.492123 45.242564 44.992893 44.743191 44.493519 44.243948 43.994525
43.745308 43.496337 43.247657 42.999296 42.751291 42.503660 42.256429 42.009607
41.763211 41.517243 41.271712 41.026610 40.781939 40.537686 40.293846 40.050399
39.807333 39.564625 39.322257 39.080202 38.838437 38.596932 38.355660 38.114588
37.873687 37.632922 37.392261 37.151668 36.911111
37.288889 37.553704 37.818554 38.083472 38.348494 38.613650 38.878975 39.144498
39.410252 39.676261 39.942556 40.209157 40.476091 40.743374 41.011027 41.279060
41.547490 41.816319 42.085557 42.355200 42.625250 42.895694 43.166527 43.437725
43.709275 43.981143 44.253306 44.525719 44.798347 45.071137 45.344040 45.616990
45.889927 46.162773 46.435455 46.707881 46.979965 47.251601 47.522691 47.793114
48.062759 48.331490 48.599182 48.865687 49.130865 49.394556 49.656605 49.916839
50.175093 50.431180 50.684922 50.936123 51.184594 51.430128 51.672529 51.911580
52.147077 52.378798 52.606533 52.830054 53.049149 53.263589 53.473158 53.677627
53.876783 54.070399 54.258265 54.440161 54.615880 54.785212 54.947958 55.103918
55.252905 55.394730 55.529221 55.656202 55.775518 55.887011 55.990540 56.085968
56.173173 56.252039 56.322463 56.384352 56.437624 56.482208 56.518047 56.545093
56.563310 56.572676 56.573178 56.564820 56.547612 56.521580 56.486761 56.443204
56.390969 56.330129 56.260766 56.182976 56.096863 56.002546 55.900146 55.789805
55.671664 55.545881 55.412616 55.272045 55.124341 54.969695 54.808295 54.640345
54.466042 54.285601 54.099228 53.907145 53.709565 53.506714 53.298809 53.086079
52.868741 52.647026 52.421147 52.191335 51.957799 51.720764 51.480435 51.237029
50.990744 50.741789 50.490353 50.236635 49.980812 49.723073 49.463583 49.202519
48.940033 48.676290 48.411428 48.145597 47.878924 47.611544 47.343568 47.075121
46.806298 46.537209 46.267938 45.998580 45.729205 45.459895 45.190707 44.921712
44.652953 44.384488 44.116350 43.848584 43.581214 43.314273 43.047774 42.781740
42.516175 42.251094 41.986491 41.722371 41.458724 41.195545 40.932817 40.670528
40.408657 40.147184 39.886082 39.625329 39.364892 39.104745 38.844851 38.585180
38.325695 38.066361 37.807140 37.547995 37.288889
37.666667 37.950460 38.234291 38.518197 38.802216 39.086385 39.370737 39.655309
39.940133 40.225241 40.510660 40.796420 41.082544 41.369057 41.655975 41.943318
42.231095 42.519321 42.807996 43.097127 43.386707 43.676734 43.967191 44.258068
44.549336 44.840975 45.132946 45.425217 45.717736 46.010461 46.303327 46.596278
46.889236 47.182132 47.474874 47.767378 48.059538 48.351256 48.642410 48.932888
49.222553 49.511279 49.798912 50.085311 50.370309 50.653749 50.935450 51.215240
51.492925 51.768321 52.041219 52.311423 52.578714 52.842884 53.103703 53.360955
53.614402 53.863820 54.108965 54.349608 54.585501 54.816412 55.042092 55.262308
55.476813 55.685377 55.887756 56.083725 56.273048 56.455507 56.630877 56.798950
56.959512 57.112369 57.257325 57.394197 57.522808 57.642996 57.754599 57.857475
57.951487 58.036512 58.112437 58.179161 58.236595 58.284663 58.323301 58.352459
58.372097 58.382191 58.382729 58.373711 58.355152 58.327078 58.289530 58.242560
58.186235 58.120631 58.045842 57.961967 57.869123 57.767434 57.657040 57.538084
57.410729 57.275139 57.131495 56.979978 56.820788 56.654122 56.480193 56.299212
56.111405 55.916992 55.716211 55.509289 55.296470 55.077986 54.854087 54.625006
54.390995 54.152285 53.909128 53.661753 53.410405 53.155311 52.896710 52.634819
52.369870 52.102070 51.831642 51.558782 51.283701 51.006582 50.727623 50.446995
50.164882 49.881440 49.596838 49.311219 49.024736 48.737517 48.449699 48.161396
47.872731 47.583801 47.294714 47.005553 46.716413 46.427361 46.138477 45.849816
45.561443 45.273402 44.985745 44.698502 44.411714 44.125399 43.839587 43.554286
43.269515 42.985273 42.701568 42.418391 42.135742 41.853603 41.571967 41.290810
41.010115 40.729856 40.450007 40.170538 39.891419 39.612614 39.334091 39.055809
38.777732 38.499820 38.222033 37.944329 37.666667
38.044444 38.347224 38.650046 38.952949 39.255977 39.559168 39.862561 40.166194
40.470104 40.774324 41.078888 41.383825 41.689164 41.994928 42.301141 42.607819
42.914982 43.222635 43.530791 43.839448 44.148611 44.458266 44.768408 45.079016
45.390073 45.701544 46.013404 46.325604 46.638106 46.950849 47.263781 47.576826
47.889919 48.202970 48.515899 48.828599 49.140974 49.452904 49.764276 50.074953
50.384806 50.693682 51.001437 51.307899 51.612909 51.916281 52.217838 52.517378
52.814712 53.109621 53.401902 53.691325 53.977672 54.260701 54.540183 54.815867
55.087514 55.354865 55.617675 55.875677 56.128624 56.376245 56.618290 56.854490
57.084594 57.308338 57.525473 57.735741 57.938902 58.134705 58.322920 58.503309
58.675654 58.839734 58.995344 59.142280 59.280358 59.409393 59.529221 59.639679