# vtk DataFile Version 3.0
Steady-state temperature (Jacobi)
ASCII
DATASET STRUCTURED_POINTS
DIMENSIONS 181 181 1
ORIGIN 0.0 0.0 0.0
SPACING 0.05 0.05 1.0
POINT_DATA 32761
SCALARS Temperature float 1
LOOKUP_TABLE default
32.000000 32.000000 32.000000 32.000000 32.000000 32.000000 32.000000 32.000000
32.000000 32.000000 32.000000 32.000000 32.000000 32.000000 32.000000 32.000000
32.000000 32.000000 32.000000 32.000000 32.000000 32.000000 32.000000 32.000000
32.000000 32.000000 32.000000 32.000000 32.000000 32.000000 32.000000 32.000000
32.000000 32.000000 32.000000 32.000000 32.000000 32.000000 32.000000 32.000000
32.000000 32.000000 32.000000 32.000000 32.000000 32.000000 32.000000 32.000000
32.000000 32.000000 32.000000 32.000000 32.000000 32.000000 32.000000 32.000000
32.000000 32.000000 32.000000 32.000000 32.000000 32.000000 32.000000 32.000000
32.000000 32.000000 32.000000 32.000000 32.000000 32.000000 32.000000 32.000000
32.000000 32.000000 32.000000 32.000000 32.000000 32.000000 32.000000 32.000000
32.000000 32.000000 32.000000 32.000000 32.000000 32.000000 32.000000 32.000000
32.000000 32.000000 32.000000 32.000000 32.000000 32.000000 32.000000 32.000000
32.000000 32.000000 32.000000 32.000000 32.000000 32.000000 32.000000 32.000000
32.000000 32.000000 32.000000 32.000000 32.000000 32.000000 32.000000 32.000000
32.000000 32.000000 32.000000 32.000000 32.000000 32.000000 32.000000 32.000000
32.000000 32.000000 32.000000 32.000000 32.000000 32.000000 32.000000 32.000000
32.000000 32.000000 32.000000 32.000000 32.000000 32.000000 32.000000 32.000000
32.000000 32.000000 32.000000 32.000000 32.000000 32.000000 32.000000 32.000000
32.000000 32.000000 32.000000 32.000000 32.000000 32.000000 32.000000 32.000000
32.000000 32.000000 32.000000 32.000000 32.000000 32.000000 32.000000 32.000000
32.000000 32.000000 32.000000 32.000000 32.000000 32.000000 32.000000 32.000000
32.000000 32.000000 32.000000 32.000000 32.000000 32.000000 32.000000 32.000000
32.000000 32.000000 32.000000 32.000000 32.000000
32.377778 32.397077 32.416377 32.435681 32.454990 32.474305 32.493629 32.512962
32.532306 32.551663 32.571033 32.590417 32.609817 32.629233 32.648665 32.668114
32.687580 32.707062 32.726561 32.746076 32.765606 32.785150 32.804706 32.824273
32.843848 32.863429 32.883014 32.902599 32.922180 32.941755 32.961318 32.980865
33.000391 33.019890 33.039357 33.058785 33.078167 33.097497 33.116767 33.135968
33.155092 33.174131 33.193074 33.211913 33.230636 33.249234 33.267696 33.286009
33.304163 33.322145 33.339943 33.357544 33.374935 33.392103 33.409034 33.425714
33.442130 33.458268 33.474112 33.489649 33.504865 33.519744 33.534274 33.548438
33.562223 33.575615 33.588599 33.601163 33.613291 33.624972 33.636192 33.646938
33.657198 33.666961 33.676214 33.684947 33.693150 33.700813 33.707927 33.714482
33.720471 33.725887 33.730723 33.734973 33.738632 33.741695 33.744158 33.746019
33.747275 33.747925 33.747967 33.747403 33.746232 33.744457 33.742080 33.739104
33.735532 33.731371 33.726624 33.721298 33.715400 33.708936 33.701917 33.694349
33.686243 33.677608 33.668455 33.658795 33.648639 33.637999 33.626888 33.615318
33.603303 33.590855 33.577990 33.564719 33.551058 33.537021 33.522622 33.507876
33.492797 33.477400 33.461699 33.445708 33.429443 33.412917 33.396144 33.379138
33.361912 33.344481 33.326857 33.309053 33.291081 33.272954 33.254684 33.236281
33.217757 33.199123 33.180388 33.161563 33.142657 33.123679 33.104637 33.085540
33.066395 33.047209 33.027990 33.008743 32.989474 32.970189 32.950894 32.931592
32.912288 32.892985 32.873688 32.854399 32.835121 32.815857 32.796608 32.777376
32.758163 32.738970 32.719798 32.700646 32.681516 32.662407 32.643320 32.624253
32.605207 32.586179 32.567171 32.548179 32.529203 32.510242 32.491294 32.472357
32.453430 32.434510 32.415596 32.396686 32.377778
32.755556 32.794154 32.832756 32.871364 32.909983 32.948615 32.987263 33.025931
33.064621 33.103335 33.142077 33.180847 33.219648 33.258481 33.297348 33.336248
33.375182 33.414150 33.453151 33.492184 33.531248 33.570339 33.609455 33.648592
33.687747 33.726915 33.766089 33.805264 33.844433 33.883588 33.922720 33.961821
34.000880 34.039886 34.078828 34.117692 34.156466 34.195134 34.233683 34.272095
34.310354 34.348441 34.386339 34.424028 34.461487 34.498694 34.535630 34.572269
34.608590 34.644567 34.680177 34.715392 34.750189 34.784538 34.818415 34.851790
34.884637 34.916926 34.948630 34.979719 35.010166 35.039939 35.069013 35.097356
35.124941 35.151738 35.177722 35.202862 35.227133 35.250508 35.272960 35.294465
35.314997 35.334533 35.353051 35.370528 35.386944 35.402279 35.416515 35.429634
35.441620 35.452459 35.462137 35.470642 35.477964 35.484094 35.489023 35.492747
35.495261 35.496561 35.496646 35.495516 35.493174 35.489621 35.484864 35.478907
35.471760 35.463431 35.453931 35.443272 35.431468 35.418534 35.404486 35.389341
35.373119 35.355839 35.337521 35.318190 35.297866 35.276574 35.254339 35.231186
35.207142 35.182233 35.156487 35.129932 35.102595 35.074507 35.045694 35.016187
34.986014 34.955205 34.923788 34.891792 34.859246 34.826179 34.792619 34.758593
34.724128 34.689252 34.653990 34.618368 34.582412 34.546145 34.509592 34.472774
34.435715 34.398435 34.360955 34.323294 34.285472 34.247506 34.209413 34.171209
34.132910 34.094531 34.056084 34.017583 33.979038 33.940462 33.901864 33.863254
33.824640 33.786030 33.747430 33.708848 33.670287 33.631755 33.593253 33.554786
33.516357 33.477968 33.439620 33.401314 33.363051 33.324832 33.286655 33.248520
33.210425 33.172369 33.134350 33.096366 33.058413 33.020490 32.982592 32.944718
32.906862 32.869022 32.831193 32.793372 32.755556
33.133333 33.191233 33.249138 33.307053 33.364984 33.422934 33.480909 33.538914
33.596952 33.655027 33.713142 33.771302 33.829508 33.887763 33.946067 34.004423
34.062830 34.121289 34.179798 34.238356 34.296959 34.355605 34.414288 34.473005
34.531748 34.590512 34.649285 34.708062 34.766829 34.825577 34.884291 34.942960
35.001566 35.060094 35.118526 35.176843 35.235025 35.293051 35.350897 35.408540
35.465953 35.523111 35.579985 35.636547 35.692764 35.748606 35.804040 35.859031
35.913544 35.967544 36.020991 36.073850 36.126079 36.177639 36.228490 36.278590
36.327896 36.376367 36.423960 36.470631 36.516337 36.561036 36.604682 36.647234
36.688647 36.728880 36.767890 36.805636 36.842076 36.877171 36.910881 36.943169
36.973998 37.003331 37.031135 37.057378 37.082026 37.105052 37.126427 37.146126
37.164124 37.180399 37.194931 37.207702 37.218696 37.227900 37.235303 37.240894
37.244668 37.246620 37.246748 37.245052 37.241534 37.236199 37.229055 37.220111
37.209378 37.196871 37.182606 37.166601 37.148877 37.129455 37.108361 37.085620
37.061262 37.035315 37.007812 36.978785 36.948269 36.916300 36.882915 36.848153
36.812053 36.774655 36.736001 36.696132 36.655091 36.612921 36.569665 36.525367
36.480071 36.433819 36.386657 36.338626 36.289771 36.240134 36.189757 36.138682
36.086950 36.034600 35.981674 35.928208 35.874242 35.819810 35.764949 35.709692
35.654074 35.598125 35.541878 35.485360 35.428602 35.371627 35.314465 35.257137
35.199667 35.142077 35.084387 35.026616 34.968782 34.910901 34.852988 34.795057
34.737122 34.679193 34.621281 34.563395 34.505544 34.447734 34.389973 34.332263
34.274611 34.217019 34.159490 34.102025 34.044626 33.987290 33.930020 33.872813
33.815667 33.758579 33.701547 33.644568 33.587636 33.530748 33.473900 33.417086
33.360300 33.303538 33.246793 33.190060 33.133333
33.511111 33.588315 33.665526 33.742750 33.819995 33.897267 33.974573 34.051917
34.129307 34.206746 34.284241 34.361794 34.439410 34.517092 34.594841 34.672659
34.750547 34.828504 34.906530 34.984620 35.062774 35.140985 35.219248 35.297556
35.375902 35.454274 35.532664 35.611057 35.689441 35.767799 35.846115 35.924370
36.002546 36.080618 36.158564 36.236359 36.313976 36.391385 36.468557 36.545460
36.622059 36.698319 36.774203 36.849670 36.924681 36.999193 37.073163 37.146543
37.219289 37.291349 37.362677 37.433219 37.502923 37.571737 37.639605 37.706473
37.772284 37.836981 37.900507 37.962805 38.023817 38.083483 38.141748 38.198551
38.253837 38.307548 38.359627 38.410019 38.458670 38.505525 38.550532 38.593641
38.634802 38.673967 38.711091 38.746129 38.779041 38.809786 38.838327 38.864629
38.888661 38.910393 38.929797 38.946850 38.961531 38.973821 38.983705 38.991171
38.996211 38.998817 38.998987 38.996721 38.992023 38.984900 38.975359 38.963416
38.949084 38.932383 38.913334 38.891963 38.868295 38.842362 38.814195 38.783831
38.751306 38.716661 38.679938 38.641182 38.600437 38.557754 38.513180 38.466769
38.418572 38.368643 38.317038 38.263813 38.209024 38.152729 38.094985 38.035852
37.975386 37.913648 37.850695 37.786585 37.721376 37.655125 37.587888 37.519722
37.450680 37.380817 37.310184 37.238835 37.166818 37.094184 37.020977 36.947246
36.873033 36.798383 36.723334 36.647929 36.572202 36.496192 36.419930 36.343451
36.266784 36.189959 36.113002 36.035939 35.958793 35.881587 35.804340 35.727071
35.649797 35.572533 35.495294 35.418091 35.340935 35.263837 35.186803 35.109841
35.032955 34.956152 34.879433 34.802802 34.726257 34.649801 34.573430 34.497146
34.420943 34.344820 34.268771 34.192792 34.116878 34.041023 33.965221 33.889464
33.813746 33.738060 33.662397 33.586750 33.511111
33.888889 33.985400 34.081920 34.178458 34.275021 34.371618 34.468258 34.564947
34.661693 34.758502 34.855381 34.952335 35.049368 35.146484 35.243686 35.340975
35.438353 35.535820 35.633373 35.731010 35.828726 35.926517 36.024375 36.122292
36.220256 36.318258 36.416282 36.514314 36.612336 36.710330 36.808272 36.906143
37.003915 37.101562 37.199053 37.296359 37.393444 37.490275 37.586810 37.683013
37.778837 37.874242 37.969178 38.063598 38.157449 38.250680 38.343234 38.435056
38.526084 38.616261 38.705521 38.793803 38.881038 38.967163 39.052106 39.135801
39.218175 39.299158 39.378677 39.456662 39.533038 39.607733 39.680674 39.751790
39.821006 39.888252 39.953457 40.016552 40.077466 40.136135 40.192491 40.246471
40.298012 40.347056 40.393543 40.437421 40.478635 40.517136 40.552878 40.585818
40.615913 40.643128 40.667429 40.688785 40.707171 40.722562 40.734941 40.744291
40.750601 40.753865 40.754078 40.751240 40.745355 40.736433 40.724484 40.709525
40.691576 40.670659 40.646803 40.620037 40.590397 40.557918 40.522644 40.484618
40.443887 40.400502 40.354515 40.305981 40.254961 40.201512 40.145699 40.087584
40.027236 39.964721 39.900109 39.833468 39.764873 39.694393 39.622103 39.548074
39.472381 39.395095 39.316293 39.236043 39.154422 39.071498 38.987344 38.902028
38.815620 38.728187 38.639795 38.550508 38.460390 38.369500 38.277900 38.185645
38.092792 37.999393 37.905501 37.811164 37.716430 37.621342 37.525945 37.430278
37.334380 37.238286 37.142031 37.045646 36.949160 36.852601 36.755995 36.659363
36.562728 36.466108 36.369521 36.272981 36.176504 36.080100 35.983779 35.887549
35.791419 35.695391 35.599472 35.503662 35.407964 35.312377 35.216900 35.121530
35.026265 34.931099 34.836028 34.741046 34.646145 34.551319 34.456559 34.361857
34.267204 34.172590 34.078006 33.983442 33.888889
34.266667 34.382489 34.498323 34.614177 34.730064 34.845991 34.961970 35.078009
35.194118 35.310304 35.426574 35.542935 35.659394 35.775953 35.892618 36.009390
36.126270 36.243258 36.360354 36.477551 36.594848 36.712236 36.829708 36.947253
37.064860 37.182513 37.300198 37.417895 37.535585 37.653243 37.770845 37.888364
38.005769 38.123027 38.240104 38.356961 38.473560 38.589854 38.705802 38.821351
38.936454 39.051055 39.165100 39.278527 39.391278 39.503287 39.614489 39.724814
39.834192 39.942550 40.049813 40.155902 40.260741 40.364246 40.466339 40.566932
40.665944 40.763286 40.858875 40.952620 41.044437 41.134235 41.221928 41.307428
41.390648 41.471502 41.549905 41.625771 41.699019 41.769567 41.837337 41.902250
41.964233 42.023212 42.079120 42.131889 42.181456 42.227761 42.270749 42.310365
42.346562 42.379294 42.408522 42.434209 42.456322 42.474834 42.489723 42.500968
42.508558 42.512483 42.512738 42.509323 42.502245 42.491512 42.477139 42.459145
42.437555 42.412396 42.383700 42.351507 42.315855 42.276792 42.234365 42.188630
42.139642 42.087464 42.032156 41.973789 41.912430 41.848154 41.781035 41.711152
41.638583 41.563412 41.485720 41.405594 41.323118 41.238380 41.151467 41.062469
40.971471 40.878565 40.783836 40.687374 40.589265 40.489596 40.388450 40.285915
40.182069 40.076998 39.970776 39.863486 39.755200 39.645993 39.535936 39.425098
39.313545 39.201342 39.088550 38.975230 38.861436 38.747224 38.632643 38.517744
38.402570 38.287167 38.171574 38.055829 37.939968 37.824023 37.708024 37.592000
37.475975 37.359973 37.244012 37.128114 37.012292 36.896562 36.780935 36.665421
36.550027 36.434762 36.319627 36.204628 36.089764 35.975036 35.860442 35.745979
35.631642 35.517427 35.403327 35.289335 35.175442 35.061640 34.947918 34.834266
34.720674 34.607130 34.493622 34.380138 34.266667
34.644444 34.779584 34.914735 35.049912 35.185126 35.320390 35.455714 35.591110
35.726588 35.862158 35.997827 36.133606 36.269500 36.405514 36.541653 36.677921
36.814317 36.950843 37.087496 37.224274 37.361169 37.498176 37.635284 37.772483
37.909757 38.047092 38.184466 38.321861 38.459251 38.596612 38.733910 38.871119
39.008198 39.145114 39.281822 39.418282 39.554443 39.690258 39.825672 39.960630
40.095070 40.228933 40.362150 40.494655 40.626374 40.757235 40.887157 41.016064
41.143869 41.270489 41.395835 41.519817 41.642342 41.763317 41.882644 42.000227
42.115964 42.229757 42.341503 42.451101 42.558446 42.663439 42.765973 42.865947
42.963259 43.057808 43.149493 43.238216 43.323879 43.406388 43.485649 43.561572
43.634068 43.703055 43.768449 43.830174 43.888155 43.942321 43.992606 44.038949
44.081293 44.119584 44.153776 44.183825 44.209694 44.231350 44.248767 44.261923
44.270801 44.275391 44.275688 44.271692 44.263410 44.250852 44.234036 44.212984
44.187725 44.158290 44.124719 44.087056 44.045348 43.999650 43.950018 43.896517
43.839212 43.778174 43.713480 43.645207 43.573438 43.498258 43.419756 43.338022
43.253151 43.165238 43.074383 42.980681 42.884238 42.785152 42.683529 42.579469
42.473078 42.364458 42.253715 42.140949 42.026264 41.909759 41.791537 41.671693
41.550327 41.427531 41.303402 41.178025 41.051495 40.923892 40.795305 40.665809
40.535488 40.404412 40.272656 40.140287 40.007374 39.873976 39.740156 39.605969
39.471469 39.336706 39.201729 39.066579 38.931300 38.795928 38.660501 38.525047
38.389599 38.254181 38.118819 37.983532 37.848341 37.713260 37.578304 37.443483
37.308809 37.174286 37.039921 36.905716 36.771673 36.637791 36.504069 36.370501
36.237085 36.103811 35.970675 35.837666 35.704775 35.571990 35.439301 35.306695
35.174160 35.041680 34.909244 34.776837 34.644444
35.022222 35.176683 35.331159 35.485663 35.640211 35.794817 35.949493 36.104253
36.259108 36.414070 36.569150 36.724356 36.879696 37.035177 37.190805 37.346582
37.502512 37.658592 37.814824 37.971201 38.127720 38.284369 38.441142 38.598021
38.754994 38.912041 39.069141 39.226270 39.383402 39.540504 39.697546 39.854488
40.011294 40.167917 40.324314 40.480431 40.636218 40.791614 40.946563 41.100995
41.254847 41.408043 41.560512 41.712172 41.862943 42.012738 42.161471 42.309046
42.455372 42.600347 42.743873 42.885844 43.026157 43.164700 43.301366 43.436039
43.568608 43.698955 43.826966 43.952520 44.075503 44.195793 44.313275 44.427827
44.539335 44.647680 44.752750 44.854427 44.952603 45.047166 45.138010 45.225031
45.308129 45.387204 45.462164 45.532919 45.599385 45.661478 45.719124 45.772251
45.820795 45.864693 45.903891 45.938341 45.967998 45.992826 46.012793 46.027875
46.038053 46.043314 46.043653 46.039071 46.029573 46.015174 45.995892 45.971754
45.942792 45.909045 45.870555 45.827374 45.779556 45.727165 45.670265 45.608931
45.543237 45.473267 45.399105 45.320845 45.238579 45.152406 45.062428 44.968750
44.871479 44.770727 44.666605 44.559228 44.448712 44.335175 44.218733 44.099508
43.977616 43.853179 43.726313 43.597140 43.465773 43.332331 43.196927 43.059677
42.920688 42.780073 42.637935 42.494382 42.349512 42.203427 42.056220 41.907985
41.758810 41.608783 41.457984 41.306495 41.154388 41.001738 40.848611 40.695075
40.541187 40.387009 40.232590 40.077985 39.923237 39.768393 39.613490 39.458567
39.303654 39.148786 38.993985 38.839279 38.684686 38.530228 38.375916 38.221766
38.067786 37.913987 37.760371 37.606944 37.453705 37.300655 37.147790 36.995108
36.842599 36.690259 36.538077 36.386043 36.234146 36.082373 35.930711 35.779146
35.627662 35.476244 35.324875 35.173540 35.022222
35.400000 35.573788 35.747594 35.921432 36.095321 36.269275 36.443311 36.617442
36.791684 36.966049 37.140548 37.315193 37.489992 37.664955 37.840086 38.015391
38.190870 38.366527 38.542358 38.718360 38.894525 39.070847 39.247311 39.423905
39.600610 39.777408 39.954272 40.131178 40.308094 40.484989 40.661821 40.838555
41.015140 41.191534 41.367678 41.543522 41.719000 41.894053 42.068608 42.242596
42.415938 42.588555 42.760361 42.931270 43.101185 43.270014 43.437654 43.604003
43.768951 43.932391 44.094205 44.254280 44.412492 44.568722 44.722841 44.874726
45.024244 45.171268 45.315663 45.457298 45.596038 45.731750 45.864297 45.993550
46.119371 46.241632 46.360199 46.474946 46.585744 46.692471 46.795004 46.893226
46.987021 47.076281 47.160898 47.240770 47.315801 47.385899 47.450977 47.510956
47.565759 47.615320 47.659575 47.698469 47.731952 47.759983 47.782526 47.799554
47.811043 47.816982 47.817363 47.812187 47.801461 47.785200 47.763428 47.736172
47.703470 47.665364 47.621906 47.573151 47.519163 47.460011 47.395772 47.326526
47.252363 47.173372 47.089655 47.001310 46.908449 46.811181 46.709622 46.603890
46.494109 46.380402 46.262899 46.141727 46.017021 45.888910 45.757532 45.623017
45.485505 45.345126 45.202019 45.056314 44.908148 44.757647 44.604947 44.450171
44.293448 44.134898 43.974646 43.812805 43.649494 43.484820 43.318896 43.151822
42.983702 42.814630 42.644703 42.474005 42.302626 42.130643 41.958137 41.785177
41.611835 41.438172 41.264252 41.090129 40.915859 40.741486 40.567059 40.392616
40.218197 40.043833 39.869557 39.695393 39.521367 39.347496 39.173800 39.000292
38.826984 38.653882 38.480996 38.308325 38.135874 37.963639 37.791618 37.619805
37.448194 37.276775 37.105538 36.934470 36.763560 36.592792 36.422151 36.251620
36.081182 35.910820 35.740515 35.570248 35.400000
35.777778 35.970900 36.164041 36.357220 36.550456 36.743767 36.937170 37.130682
37.324319 37.518096 37.712027 37.906123 38.100397 38.294855 38.489507 38.684357
38.879409 39.074662 39.270117 39.465769 39.661611 39.857633 40.053825 40.250168
40.446646 40.643233 40.839908 41.036637 41.233390 41.430127 41.626810 41.823391
42.019823 42.216049 42.412016 42.607656 42.802907 42.997694 43.191944 43.385573
43.578499 43.770630 43.961875 44.152131 44.341300 44.529269 44.715931 44.901167
45.084860 45.266883 45.447113 45.625414 45.801657 45.975701 46.147410 46.316638
46.483245 46.647079 46.807998 46.965849 47.120485 47.271754 47.419508 47.563593
47.703865 47.840172 47.972371 48.100314 48.223863 48.342875 48.457217 48.566755
48.671362 48.770912 48.865288 48.954375 49.038065 49.116254 49.188846 49.255751
49.316885 49.372170 49.421538 49.464926 49.502278 49.533548 49.558695 49.577689
49.590505 49.597128 49.597551 49.591774 49.579805 49.561662 49.537369 49.506960
49.470474 49.427961 49.379477 49.325085 49.264856 49.198870 49.127208 49.049965
48.967237 48.879130 48.785751 48.687217 48.583647 48.475168 48.361906 48.243999
48.121580 47.994791 47.863774 47.728676 47.589642 47.446824 47.300369 47.150430
46.997156 46.840701 46.681212 46.518842 46.353737 46.186047 46.015914 45.843484
45.668895 45.492287 45.313792 45.133545 44.951671 44.768297 44.583539 44.397520
44.210346 44.022130 43.832971 43.642973 43.452227 43.260826 43.068851 42.876389
42.683512 42.490294 42.296800 42.103096 41.909236 41.715278 41.521268 41.327255
41.133276 40.939373 40.745574 40.551913 40.358412 40.165096 39.971982 39.779086
39.586419 39.393992 39.201809 39.009875 38.818190 38.626753 38.435559 38.244603
38.053874 37.863365 37.673061 37.482952 37.293019 37.103248 36.913620 36.724118
36.534721 36.345410 36.156163 35.966960 35.777778
36.155556 36.368018 36.580502 36.793028 37.005618 37.218293 37.431072 37.643974
37.857016 38.070218 38.283591 38.497153 38.710914 38.924887 39.139076 39.353493
39.568137 39.783013 39.998117 40.213449 40.428998 40.644757 40.860710 41.076844
41.293134 41.509560 41.726090 41.942697 42.159339 42.375981 42.592574 42.809072
43.025417 43.241555 43.457417 43.672940 43.888045 44.102660 44.316695 44.530066
44.742676 44.954430 45.165220 45.374942 45.583478 45.790713 45.996519 46.200774
46.403341 46.604086 46.802866 46.999539 47.193954 47.385962 47.575405 47.762130
47.945972 48.126774 48.304367 48.478591 48.649275 48.816257 48.979367 49.138442
49.293312 49.443817 49.589791 49.731078 49.867515 49.998953 50.125236 50.246221
50.361763 50.471726 50.575976 50.674388 50.766839 50.853218 50.933415 51.007331
51.074871 51.135953 51.190496 51.238433 51.279702 51.314251 51.342035 51.363019
51.377178 51.384494 51.384958 51.378571 51.365343 51.345292 51.318447 51.284843
51.244526 51.197550 51.143977 51.083877 51.017331 50.944423 50.865249 50.779909
50.688515 50.591178 50.488024 50.379178 50.264776 50.144953 50.019858 49.889634
49.754437 49.614420 49.469745 49.320568 49.167059 49.009378 48.847695 48.682175
48.512988 48.340298 48.164277 47.985086 47.802894 47.617860 47.430150 47.239916
47.047320 46.852509 46.655637 46.456844 46.256278 46.054070 45.850358 45.645267
45.438925 45.231446 45.022950 44.813542 44.603329 44.392408 44.180876 43.968818
43.756323 43.543465 43.330322 43.116958 42.903443 42.689830 42.476178 42.262532
42.048942 41.835443 41.622077 41.408870 41.195856 40.983053 40.770485 40.558166
40.346112 40.134328 39.922825 39.711602 39.500664 39.290004 39.079620 38.869502
38.659644 38.450031 38.240651 38.031487 37.822524 37.613742 37.405122 37.196641
36.988280 36.780014 36.571821 36.363676 36.155556
36.533333 36.765142 36.996975 37.228856 37.460808 37.692855 37.925018 38.157319
38.389778 38.622414 38.855245 39.088286 39.321552 39.555053 39.788803 40.022805
40.257068 40.491590 40.726375 40.961415 41.196707 41.432236 41.667994 41.903957
42.140109 42.376420 42.612863 42.849400 43.085996 43.322604 43.559179 43.795662
44.032001 44.268127 44.503975 44.739465 44.974524 45.209060 45.442988 45.676205
45.908615 46.140105 46.370567 46.599876 46.827913 47.054543 47.279637 47.503049
47.724639 47.944252 48.161739 48.376936 48.589686 48.799816 49.007162 49.211545
49.412796 49.610729 49.805171 49.995935 50.182842 50.365705 50.544344 50.718572
50.888212 51.053077 51.212993 51.367779 51.517266 51.661279 51.799655 51.932229
52.058847 52.179355 52.293608 52.401465 52.502795 52.597470 52.685374 52.766393
52.840428 52.907383 52.967172 53.019720 53.064959 53.102830 53.133286 53.156289
53.171808 53.179824 53.180330 53.173324 53.158818 53.136834 53.107399 53.070557
53.026354 52.974853 52.916120 52.850235 52.777283 52.697361 52.610571 52.517028
52.416849 52.310164 52.197104 52.077814 51.952437 51.821131 51.684049 51.541359
51.393224 51.239821 51.081320 50.917904 50.749747 50.577038 50.399954 50.218684
50.033410 49.844319 49.651591 49.455413 49.255962 49.053423 48.847966 48.639771
48.429004 48.215837 48.000430 47.782946 47.563537 47.342357 47.119548 46.895255
46.669610 46.442748 46.214789 45.985857 45.756061 45.525516 45.294318 45.062571
44.830359 44.597775 44.364893 44.131794 43.898542 43.665205 43.431838 43.198500
42.965233 42.732087 42.499096 42.266298 42.033720 41.801391 41.569328 41.337552
41.106074 40.874906 40.644052 40.413517 40.183300 39.953398 39.723803 39.494510
39.265505 39.036776 38.808306 38.580080 38.352076 38.124275 37.896653 37.669189
37.441857 37.214632 36.987487 36.760397 36.533333
36.911111 37.162273 37.413462 37.664704 37.916025 38.167452 38.419007 38.670718
38.922603 39.174687 39.426987 39.679523 39.932309 40.185361 40.438688 40.692302
40.946205 41.200405 41.454897 41.709682 41.964749 42.220093 42.475693 42.731537
42.987596 43.243849 43.500258 43.756791 44.013402 44.270050 44.526676 44.783229
45.039641 45.295847 45.551768 45.807329 46.062439 46.317009 46.570937 46.824123
47.076451 47.327809 47.578069 47.827108 48.074783 48.320961 48.565488 48.808218
49.048987 49.287637 49.523995 49.757892 49.989146 50.217581 50.443005 50.665234
50.884072 51.099328 51.310801 51.518297 51.721611 51.920546 52.114898 52.304470
52.489059 52.668471 52.842504 53.010971 53.173675 53.330436 53.481065 53.625390
53.763235 53.894436 54.018832 54.136270 54.246604 54.349697 54.445417 54.533645
54.614268 54.687182 54.752294 54.809521 54.858788 54.900032 54.933199 54.958249
54.975147 54.983875 54.984421 54.976787 54.960984 54.937034 54.904972 54.864840
54.816694 54.760598 54.696629 54.624870 54.545419 54.458378 54.363862 54.261994
54.152905 54.036734 53.913630 53.783745 53.647244 53.504290 53.355061 53.199732
53.038490 52.871521 52.699019 52.521175 52.338192 52.150263 51.957595 51.760384
51.558837 51.353152 51.143535 50.930179 50.713290 50.493056 50.269677 50.043338
49.814231 49.582532 49.348426 49.112082 48.873675 48.633362 48.391309 48.147663
47.902577 47.656189 47.408638 47.160051 46.910555 46.660263 46.409291 46.157741
45.905715 45.653302 45.400594 45.147666 44.894598 44.641454 44.388303 44.135197
43.882193 43.629334 43.376665 43.124219 42.872032 42.620126 42.368529 42.117254
41.866320 41.615732 41.365500 41.115623 40.866105 40.616936 40.368114 40.119625
39.871459 39.623598 39.376028 39.128726 38.881673 38.634844 38.388216 38.141760
37.895452 37.649262 37.403162 37.157121 36.911111
37.288889 37.559410 37.829961 38.100570 38.371268 38.642082 38.913040 39.184168
39.455492 39.727035 39.998819 40.270864 40.543190 40.815809 41.088738 41.361984
41.635558 41.909460 42.183695 42.458257 42.733142 43.008337 43.283830 43.559599
43.835623 44.111870 44.388311 44.664902 44.941603 45.218360 45.495123 45.771825
46.048404 46.324780 46.600880 46.876612 47.151889 47.426605 47.700660 47.973937
48.246321 48.517680 48.787888 49.056799 49.324274 49.590153 49.854283 50.116495
50.376622 50.634482 50.889899 51.142678 51.392632 51.639560 51.883264 52.123534
52.360166 52.592943 52.821656 53.046085 53.266015 53.481224 53.691498 53.896613
54.096358 54.290510 54.478862 54.661197 54.837313 55.007002 55.170068 55.326314
55.475557 55.617611 55.752305 55.879470 55.998948 56.110587 56.214248 56.309797
56.397112 56.476080 56.546600 56.608579 56.661938 56.706608 56.742530 56.769658
56.787959 56.797408 56.797995 56.789720 56.772597 56.746650 56.711916 56.668441
56.616286 56.555523 56.486231 56.408506 56.322449 56.228176 56.125811 56.015488
55.897348 55.771546 55.638240 55.497602 55.349803 55.195031 55.033471 54.865322
54.690780 54.510055 54.323351 54.130885 53.932868 53.729521 53.521058 53.307705
53.089676 52.867196 52.640479 52.409748 52.175212 51.937091 51.695587 51.450915
51.203271 50.952858 50.699866 50.444488 50.186902 49.927293 49.665825 49.402671
49.137985 48.871927 48.604636 48.336259 48.066924 47.796763 47.525891 47.254427
46.982470 46.710128 46.437488 46.164641 45.891663 45.618632 45.345612 45.072669
44.799852 44.527219 44.254806 43.982659 43.710806 43.439279 43.168099 42.897287
42.626855 42.356815 42.087170 41.817926 41.549078 41.280622 41.012548 40.744847
40.477502 40.210498 39.943812 39.677426 39.411313 39.145449 38.879805 38.614354
38.349064 38.083905 37.818844 37.553850 37.288889
37.666667 37.956553 38.246471 38.536455 38.826535 39.116745 39.407113 39.697669
39.988441 40.279456 40.570737 40.862309 41.154189 41.446398 41.738948 42.031854
42.325123 42.618761 42.912770 43.207149 43.501888 43.796983 44.092413 44.388163
44.684204 44.980511 45.277044 45.573767 45.870629 46.167581 46.464560 46.761507
47.058344 47.354998 47.651379 47.947400 48.242957 48.537949 48.832258 49.125767
49.418344 49.709860 50.000165 50.289116 50.576549 50.862308 51.146215 51.428097
51.707766 51.985035 52.259702 52.531571 52.800427 53.066063 53.328255 53.586787
53.841427 54.091951 54.338123 54.579712 54.816477 55.048188 55.274602 55.495487
55.710602 55.919718 56.122597 56.319016 56.508744 56.691566 56.867261 57.035622
57.196442 57.349528 57.494686 57.631739 57.760512 57.880842 57.992575 58.095569
58.189688 58.274814 58.350832 58.417646 58.475167 58.523321 58.562044 58.591287
58.611012 58.621194 58.621821 58.612895 58.594428 58.566448 58.528994 58.482117
58.425884 58.360369 58.285664 58.201867 58.109093 58.007463 57.897116 57.778193
57.650852 57.515256 57.371583 57.220011 57.060736 56.893952 56.719869 56.538694
56.350650 56.155954 55.954838 55.747527 55.534261 55.315269 55.090794 54.861069
54.626339 54.386836 54.142802 53.894468 53.642072 53.385840 53.126005 52.862783
52.596401 52.327066 52.054995 51.780383 51.503437 51.224340 50.943286 50.660446
50.375998 50.090102 49.802921 49.514600 49.225289 48.935116 48.644218 48.352708
48.060708 47.768318 47.475643 47.182771 46.889791 46.596778 46.303808 46.010942
45.718244 45.425761 45.133545 44.841631 44.550060 44.258856 43.968049 43.677652
43.387686 43.098154 42.809067 42.520422 42.232220 41.944450 41.657107 41.370172
41.083633 40.797468 40.511657 40.226174 39.940993 39.656084 39.371420 39.086965
38.802689 38.518557 38.234533 37.950582 37.666667
38.044444 38.353700 38.662992 38.972355 39.281825 39.591436 39.901222 40.211215
40.521447 40.831945 41.142738 41.453850 41.765305 42.077121 42.389318 42.701907
43.014902 43.328305 43.642125 43.956356 44.270997 44.586033 44.901454 45.217236
45.533358 45.849784 46.166484 46.483408 46.800514 47.117741 47.435033 47.752315
48.069518 48.386552 48.703334 49.019759 49.335730 49.651126 49.965834 50.279717
50.592647 50.904472 51.215046 51.524204 51.831782 52.137600 52.441480 52.743224
53.042643 53.339524 53.633662 53.924833 54.212819 54.497385 54.778302 55.055324
55.328214 55.596719 55.860594 56.119580 56.373429 56.621879 56.864679 57.101569
57.332297 57.556606 57.774250 57.984976 58.188545 58.384714 58.573254 58.753931
58.926531 59.090836 59.246645 59.393757 59.531991 59.661165 59.781116 59.891687