# vtk DataFile Version 3.0
Steady-state temperature (Jacobi)
ASCII
DATASET STRUCTURED_POINTS
DIMENSIONS 181 181 1
ORIGIN 0.0 0.0 0.0
SPACING 0.05 0.05 1.0
POINT_DATA 32761
SCALARS Temperature float 1
LOOKUP_TABLE default
32.000000 32.000000 32.000000 32.000000 32.000000 32.000000 32.000000 32.000000
32.000000 32.000000 32.000000 32.000000 32.000000 32.000000 32.000000 32.000000
32.000000 32.000000 32.000000 32.000000 32.000000 32.000000 32.000000 32.000000
32.000000 32.000000 32.000000 32.000000 32.000000 32.000000 32.000000 32.000000
32.000000 32.000000 32.000000 32.000000 32.000000 32.000000 32.000000 32.000000
32.000000 32.000000 32.000000 32.000000 32.000000 32.000000 32.000000 32.000000
32.000000 32.000000 32.000000 32.000000 32.000000 32.000000 32.000000 32.000000
32.000000 32.000000 32.000000 32.000000 32.000000 32.000000 32.000000 32.000000
32.000000 32.000000 32.000000 32.000000 32.000000 32.000000 32.000000 32.000000
32.000000 32.000000 32.000000 32.000000 32.000000 32.000000 32.000000 32.000000
32.000000 32.000000 32.000000 32.000000 32.000000 32.000000 32.000000 32.000000
32.000000 32.000000 32.000000 32.000000 32.000000 32.000000 32.000000 32.000000
32.000000 32.000000 32.000000 32.000000 32.000000 32.000000 32.000000 32.000000
32.000000 32.000000 32.000000 32.000000 32.000000 32.000000 32.000000 32.000000
32.000000 32.000000 32.000000 32.000000 32.000000 32.000000 32.000000 32.000000
32.000000 32.000000 32.000000 32.000000 32.000000 32.000000 32.000000 32.000000
32.000000 32.000000 32.000000 32.000000 32.000000 32.000000 32.000000 32.000000
32.000000 32.000000 32.000000 32.000000 32.000000 32.000000 32.000000 32.000000
32.000000 32.000000 32.000000 32.000000 32.000000 32.000000 32.000000 32.000000
32.000000 32.000000 32.000000 32.000000 32.000000 32.000000 32.000000 32.000000
32.000000 32.000000 32.000000 32.000000 32.000000 32.000000 32.000000 32.000000
32.000000 32.000000 32.000000 32.000000 32.000000 32.000000 32.000000 32.000000
32.000000 32.000000 32.000000 32.000000 32.000000
32.377778 32.392656 32.407539 32.422433 32.437343 32.452274 32.467231 32.482220
32.497244 32.512310 32.527420 32.542581 32.557795 32.573068 32.588402 32.603801
32.619267 32.634804 32.650414 32.666100 32.681862 32.697703 32.713621 32.729621
32.745698 32.761856 32.778091 32.794404 32.810790 32.827249 32.843777 32.860371
32.877026 32.893739 32.910503 32.927314 32.944163 32.961046 32.977953 32.994879
33.011811 33.028743 33.045663 33.062564 33.079431 33.096256 33.113022 33.129723
33.146340 33.162865 33.179278 33.195570 33.211722 33.227723 33.243553 33.259201
33.274646 33.289876 33.304872 33.319619 33.334097 33.348294 33.362189 33.375769
33.389014 33.401909 33.414437 33.426583 33.438329 33.449662 33.460563 33.471022
33.481020 33.490546 33.499585 33.508125 33.516153 33.523659 33.530630 33.537058
33.542931 33.548242 33.552982 33.557145 33.560725 33.563716 33.566113 33.567913
33.569113 33.569712 33.569708 33.569102 33.567895 33.566088 33.563685 33.560688
33.557104 33.552936 33.548192 33.542878 33.537004 33.530576 33.523607 33.516103
33.508080 33.499545 33.490514 33.480997 33.471011 33.460567 33.449681 33.438367
33.426643 33.414521 33.402021 33.389156 33.375945 33.362402 33.348547 33.334394
33.319963 33.305267 33.290328 33.275157 33.259776 33.244197 33.228441 33.212518
33.196449 33.180245 33.163925 33.147500 33.130988 33.114397 33.097746 33.081044
33.064306 33.047540 33.030761 33.013975 32.997198 32.980434 32.963695 32.946987
32.930321 32.913700 32.897134 32.880626 32.864184 32.847810 32.831511 32.815287
32.799146 32.783086 32.767112 32.751223 32.735423 32.719709 32.704084 32.688546
32.673095 32.657728 32.642446 32.627244 32.612123 32.597076 32.582104 32.567200
32.552363 32.537587 32.522869 32.508204 32.493587 32.479014 32.464479 32.449977
32.435504 32.421053 32.406618 32.392195 32.377778
32.755556 32.785315 32.815086 32.844878 32.874702 32.904568 32.934487 32.964467
32.994521 33.024656 33.054883 33.085208 33.115643 33.146191 33.176865 33.207667
33.238606 33.269685 33.300913 33.332289 33.363821 33.395507 33.427355 33.459358
33.491524 33.523845 33.556326 33.588957 33.621741 33.654667 33.687735 33.720931
33.754255 33.787689 33.821231 33.854861 33.888575 33.922351 33.956181 33.990042
34.023924 34.057800 34.091658 34.125471 34.159224 34.192885 34.226439 34.259853
34.293108 34.326169 34.359017 34.391615 34.423941 34.455957 34.487639 34.518949
34.549862 34.580337 34.610349 34.639858 34.668837 34.697246 34.725058 34.752232
34.778742 34.804547 34.829623 34.853929 34.877440 34.900119 34.921940 34.942870
34.962883 34.981947 35.000040 35.017132 35.033202 35.048223 35.062177 35.075040
35.086796 35.097425 35.106914 35.115246 35.122411 35.128397 35.133195 35.136798
35.139201 35.140399 35.140392 35.139179 35.136762 35.133146 35.128335 35.122338
35.115163 35.106822 35.097326 35.086692 35.074932 35.062069 35.048117 35.033101
35.017040 34.999960 34.981883 34.962838 34.942848 34.921947 34.900158 34.877517
34.854049 34.829792 34.804771 34.779026 34.752583 34.725482 34.697751 34.669430
34.640547 34.611141 34.581240 34.550884 34.520100 34.488928 34.457392 34.425533
34.393374 34.360952 34.328291 34.295428 34.262382 34.229189 34.195867 34.162450
34.128954 34.095411 34.061835 34.028254 33.994681 33.961143 33.927649 33.894224
33.860876 33.827625 33.794479 33.761455 33.728557 33.695801 33.663190 33.630738
33.598442 33.566317 33.534358 33.502575 33.470963 33.439531 33.408272 33.377191
33.346280 33.315543 33.284970 33.254563 33.224312 33.194216 33.164264 33.134453
33.104772 33.075217 33.045776 33.016442 32.987204 32.958054 32.928980 32.899974
32.871022 32.842116 32.813244 32.784394 32.755556
33.133333 33.177983 33.222648 33.267346 33.312092 33.356901 33.401789 33.446772
33.491862 33.537077 33.582426 33.627928 33.673590 33.719428 33.765449 33.811667
33.858088 33.904724 33.951577 33.998661 34.045972 34.093522 34.141307 34.189335
34.237599 34.286105 34.334843 34.383816 34.433010 34.482428 34.532049 34.581875
34.631881 34.682066 34.732401 34.782882 34.833478 34.884179 34.934952 34.985782
35.036634 35.087489 35.138308 35.189071 35.239732 35.290269 35.340635 35.390802
35.440721 35.490362 35.539671 35.588618 35.637145 35.685220 35.732783 35.779799
35.826208 35.871972 35.917031 35.961346 36.004855 36.047519 36.089277 36.130088
36.169892 36.208649 36.246301 36.282806 36.318110 36.352172 36.384940 36.416375
36.446427 36.475062 36.502231 36.527903 36.552035 36.574598 36.595552 36.614874
36.632528 36.648494 36.662744 36.675260 36.686020 36.695011 36.702217 36.707629
36.711237 36.713037 36.713026 36.711205 36.707575 36.702144 36.694919 36.685911
36.675135 36.662606 36.648346 36.632372 36.614713 36.595392 36.574440 36.551886
36.527766 36.502112 36.474966 36.446361 36.416344 36.384950 36.352232 36.318227
36.282988 36.246555 36.208985 36.170319 36.130615 36.089915 36.048278 36.005746
35.962379 35.918219 35.873327 35.827742 35.781526 35.734716 35.687373 35.639534
35.591256 35.542574 35.493545 35.444201 35.394597 35.344760 35.294743 35.244572
35.194296 35.143938 35.093542 35.043130 34.992742 34.942395 34.892128 34.841953
34.791905 34.741994 34.692251 34.642682 34.593314 34.544150 34.495214 34.446506
34.398046 34.349830 34.301875 34.254176 34.206745 34.159573 34.112671 34.066028
34.019650 33.973524 33.927654 33.882026 33.836639 33.791478 33.746540 33.701809
33.657279 33.612932 33.568762 33.524748 33.480883 33.437146 33.393527 33.350006
33.306571 33.263202 33.219884 33.176600 33.133333
33.511111 33.570662 33.630234 33.689849 33.749529 33.809293 33.869164 33.929158
33.989301 34.049605 34.110095 34.170783 34.231691 34.292828 34.354217 34.415863
34.477787 34.539992 34.602496 34.665298 34.728415 34.791842 34.855594 34.919661
34.984054 35.048761 35.113790 35.179123 35.244764 35.310691 35.376906 35.443381
35.510113 35.577070 35.644245 35.711601 35.779127 35.846780 35.914545 35.982375
36.050249 36.118115 36.185950 36.253696 36.321324 36.388773 36.456010 36.522969
36.589613 36.655873 36.721707 36.787044 36.851837 36.916013 36.979522 37.042288
37.104259 37.165357 37.225529 37.284695 37.342800 37.399763 37.455532 37.510024
37.563185 37.614937 37.665225 37.713972 37.761126 37.806612 37.850380 37.892359
37.932501 37.970741 38.007034 38.041318 38.073554 38.103686 38.131678 38.157482
38.181066 38.202390 38.221426 38.238141 38.252516 38.264524 38.274150 38.281378
38.286198 38.288602 38.288588 38.286155 38.281307 38.274052 38.264401 38.252370
38.237975 38.221242 38.202192 38.180859 38.157269 38.131464 38.103477 38.073355
38.041136 38.006876 37.970614 37.932413 37.892318 37.850395 37.806693 37.761283
37.714215 37.665565 37.615386 37.563756 37.510728 37.456383 37.400776 37.343988
37.286074 37.227115 37.167165 37.106307 37.044592 36.982102 36.918885 36.855023
36.790562 36.725579 36.660119 36.594255 36.528029 36.461511 36.394739 36.327779
36.260664 36.193457 36.126187 36.058912 35.991655 35.924471 35.857379 35.790428
35.723633 35.657037 35.590652 35.524516 35.458635 35.393043 35.327742 35.262761
35.198097 35.133776 35.069790 35.006160 34.942876 34.879953 34.817378 34.755161
34.693287 34.631763 34.570570 34.509710 34.449164 34.388929 34.328985 34.269324
34.209925 34.150778 34.091860 34.033159 33.974650 33.916318 33.858139 33.800095
33.742162 33.684320 33.626546 33.568817 33.511111
33.888889 33.963357 34.037851 34.112400 34.187028 34.261764 34.336631 34.411658
34.486865 34.562282 34.637925 34.713823 34.789990 34.866453 34.943223 35.020326
35.097767 35.175572 35.253741 35.332297 35.411237 35.490578 35.570315 35.650461
35.731004 35.811955 35.893297 35.975036 36.057148 36.139637 36.222471 36.305650
36.389136 36.472924 36.556970 36.641262 36.725752 36.810423 36.895218 36.980115
37.065052 37.150002 37.234896 37.319700 37.404342 37.488781 37.572938 37.656770
37.740192 37.823154 37.905567 37.987379 38.068495 38.148859 38.228373 38.306976
38.384569 38.461088 38.536433 38.610537 38.683298 38.754648 38.824486 38.892744
38.959322 39.024151 39.087132 39.148200 39.207259 39.264244 39.319064 39.371658
39.421939 39.469849 39.515310 39.558266 39.598646 39.636400 39.671465 39.703797
39.733341 39.760059 39.783906 39.804851 39.822858 39.837905 39.849964 39.859021
39.865060 39.868072 39.868055 39.865006 39.858933 39.849843 39.837752 39.822677
39.804644 39.783677 39.759813 39.733082 39.703531 39.671199 39.636140 39.598398
39.558040 39.515113 39.469692 39.421830 39.371608 39.319085 39.264347 39.207457
39.148506 39.087560 39.024714 38.960037 38.893627 38.825553 38.755916 38.684785
38.612263 38.538417 38.463351 38.387130 38.309858 38.231599 38.152452 38.072479
37.991779 37.910409 37.828463 37.745996 37.663098 37.579817 37.496241 37.412412
37.328413 37.244282 37.160094 37.075883 36.991718 36.907627 36.823674 36.739881
36.656304 36.572962 36.489904 36.407142 36.324720 36.242644 36.160953 36.079647
35.998758 35.918283 35.838246 35.758640 35.679485 35.600768 35.522504 35.444675
35.367291 35.290333 35.213803 35.137680 35.061961 34.986623 34.911659 34.837042
34.762763 34.688792 34.615115 34.541704 34.468539 34.395592 34.322841 34.250256
34.177813 34.105482 34.033237 33.961048 33.888889
34.266667 34.356070 34.445506 34.535006 34.624605 34.714330 34.804218 34.894293
34.984591 35.075136 35.165960 35.257085 35.348542 35.440348 35.532534 35.625110
35.718107 35.811529 35.905405 35.999734 36.094541 36.189818 36.285588 36.381836
36.478581 36.575803 36.673514 36.771688 36.870332 36.969413 37.068932 37.168849
37.269160 37.369816 37.470807 37.572078 37.673612 37.775344 37.877253 37.979267
38.081355 38.183441 38.285486 38.387406 38.489156 38.590645 38.691823 38.792591
38.892893 38.992624 39.091723 39.190079 39.287626 39.384249 39.479876 39.574390
39.667716 39.759731 39.850359 39.939476 40.027002 40.112814 40.196830 40.278929
40.359027 40.437006 40.512782 40.586241 40.657302 40.725853 40.791817 40.855089
40.915593 40.973233 41.027939 41.079621 41.128214 41.173639 41.215838 41.254739
41.290294 41.322442 41.351142 41.376345 41.398017 41.416121 41.430635 41.441533
41.448801 41.452427 41.452405 41.448737 41.441428 41.430490 41.415939 41.397800
41.376098 41.350869 41.322149 41.289986 41.254422 41.215520 41.173328 41.127920
41.079351 41.027706 40.973047 40.915466 40.855032 40.791845 40.725980 40.657542
40.586611 40.513298 40.437685 40.359888 40.279991 40.198113 40.114339 40.028790
39.941550 39.852742 39.762449 39.670792 39.577852 39.483750 39.388563 39.292410
39.195362 39.097536 38.998998 38.899861 38.800187 38.700081 38.599600 38.498844
38.397864 38.296752 38.195554 38.094355 37.993193 37.892148 37.791249 37.690569
37.590132 37.490002 37.390196 37.290771 37.191738 37.093145 36.994997 36.897336
36.800160 36.703503 36.607358 36.511752 36.416673 36.322140 36.228136 36.134676
36.041736 35.949326 35.857417 35.766014 35.675085 35.584628 35.494610 35.405022
35.315830 35.227020 35.138556 35.050420 34.962574 34.874997 34.787650 34.700508
34.613534 34.526698 34.439963 34.353298 34.266667
34.644444 34.748806 34.853206 34.957683 35.062272 35.167014 35.271941 35.377094
35.482503 35.588208 35.694233 35.800619 35.907386 36.014573 36.122195 36.230288
36.338861 36.447949 36.557554 36.667707 36.778405 36.889673 37.001503 37.113914
37.226890 37.340448 37.454560 37.569240 37.684451 37.800200 37.916443 38.033180
38.150358 38.267969 38.385953 38.504294 38.622923 38.741815 38.860894 38.980127
39.099428 39.218757 39.338019 39.457167 39.576097 39.694754 39.813026 39.930852
40.048112 40.164738 40.280603 40.395632 40.509694 40.622707 40.734536 40.845093
40.954240 41.061884 41.167885 41.272148 41.374530 41.474934 41.573219 41.669285
41.762994 41.854246 41.942905 42.028874 42.112020 42.192250 42.269438 42.343493
42.414296 42.481762 42.545782 42.606277 42.663147 42.716320 42.765707 42.811246
42.852859 42.890493 42.924084 42.953588 42.978953 43.000148 43.017136 43.029894
43.038401 43.042646 43.042621 43.038327 43.029772 43.016968 42.999937 42.978702
42.953301 42.923767 42.890153 42.852501 42.810879 42.765339 42.715960 42.662806
42.605966 42.545513 42.481548 42.414149 42.343430 42.269473 42.192402 42.112304
42.029309 41.943510 41.855042 41.764002 41.670528 41.574719 41.476717 41.376620
41.274572 41.170670 41.065059 40.957833 40.849136 40.739060 40.627745 40.515279
40.401800 40.287388 40.172178 40.056246 39.939718 39.822664 39.705205 39.587403
39.469372 39.351167 39.232893 39.114598 38.996379 38.878275 38.760375 38.642711
38.525362 38.408351 38.291751 38.175576 38.059889 37.944697 37.830055 37.715962
37.602464 37.489555 37.377271 37.265598 37.154567 37.044157 36.934390 36.825241
36.716723 36.608808 36.501500 36.394769 36.288611 36.182991 36.077901 35.973302
35.869181 35.765495 35.662227 35.559333 35.456789 35.354552 35.252592 35.150867
35.049343 34.947977 34.846732 34.745568 34.644444
35.022222 35.141569 35.260959 35.380437 35.500046 35.619828 35.739827 35.860081
35.980636 36.101523 36.222788 36.344458 36.466579 36.589170 36.712274 36.835907
36.960109 37.084886 37.210277 37.336282 37.462933 37.590222 37.718178 37.846785
37.976065 38.105994 38.236587 38.367811 38.499675 38.632135 38.765194 38.898797
39.032941 39.167559 39.302640 39.438109 39.573943 39.710059 39.846424 39.982945
40.119581 40.256228 40.392836 40.529290 40.665534 40.801443 40.936950 41.071923
41.206286 41.339899 41.472679 41.604479 41.735208 41.864712 41.992896 42.119600
42.244722 42.368101 42.489630 42.609146 42.726537 42.841641 42.954344 43.064485
43.171950 43.276580 43.378263 43.476842 43.572210 43.664215 43.752754 43.837683
43.918903 43.996281 44.069724 44.139110 44.204353 44.265343 44.322004 44.374240
44.421984 44.465153 44.503693 44.537538 44.566642 44.590956 44.610447 44.625083
44.634844 44.639713 44.639685 44.634760 44.624944 44.610256 44.590715 44.566356
44.537212 44.503333 44.464766 44.421577 44.373823 44.321586 44.264935 44.203967
44.138758 44.069421 43.996040 43.918741 43.837616 43.752799 43.664393 43.572539
43.477344 43.378960 43.277495 43.173108 43.065911 42.956065 42.843683 42.728931
42.611921 42.492819 42.371734 42.248834 42.124225 41.998071 41.870475 41.741596
41.611533 41.480439 41.348408 41.215587 41.082060 40.947970 40.813392 40.678461
40.543244 40.407867 40.272388 40.136924 40.001523 39.866294 39.731275 39.596564
39.462192 39.328245 39.194745 39.061769 38.929329 38.797492 38.666263 38.535697
38.405791 38.276591 38.148087 38.020315 37.893257 37.766940 37.641340 37.516476
37.392316 37.268872 37.146108 37.024025 36.902585 36.781781 36.661571 36.541941
36.422846 36.304266 36.186153 36.068482 35.951204 35.834287 35.717681 35.601352
35.485248 35.369330 35.253550 35.137863 35.022222
35.400000 35.534361 35.668771 35.803281 35.937938 36.072794 36.207892 36.343285
36.479010 36.615122 36.751652 36.888653 37.026151 37.164197 37.302811 37.442040
37.581897 37.722427 37.863633 38.005556 38.148191 38.291575 38.435693 38.580575
38.726198 38.872584 39.019700 39.167561 39.316124 39.465396 39.615322 39.765901
39.917066 40.068808 40.221048 40.373767 40.526875 40.680344 40.834070 40.988016
41.142068 41.296177 41.450218 41.604131 41.757781 41.911099 42.063940 42.216222
42.367793 42.518562 42.668367 42.817109 42.964618 43.110789 43.255445 43.398473
43.539692 43.678983 43.816162 43.951107 44.083630 44.213608 44.340853 44.465239
44.586582 44.704755 44.819579 44.930929 45.038631 45.142563 45.242561 45.338506
45.430244 45.517665 45.600623 45.679018 45.752718 45.821631 45.885640 45.944663
45.998600 46.047381 46.090922 46.129167 46.162048 46.189524 46.211545 46.228085
46.239113 46.244616 46.244584 46.239019 46.227929 46.211331 46.189254 46.161728
46.128802 46.090520 46.046949 45.998146 45.944198 45.885174 45.821177 45.752288
45.678627 45.600287 45.517399 45.430067 45.338436 45.242618 45.142769 45.039008
44.931500 44.820370 44.705791 44.587891 44.466849 44.342795 44.215912 44.086330
43.954236 43.819755 43.683077 43.544324 43.403683 43.261274 43.117279 42.971812
42.825051 42.677103 42.528141 42.378262 42.227633 42.076343 41.924548 41.772330
41.619835 41.467134 41.314364 41.161585 41.008924 40.856431 40.704220 40.552331
40.400868 40.249861 40.099400 39.949506 39.800258 39.651667 39.503800 39.356659
39.210301 39.064717 38.919953 38.775993 38.632872 38.490567 38.349102 38.208447
38.068617 37.929574 37.791326 37.653830 37.517082 37.381037 37.245683 37.110970
36.976879 36.843357 36.710378 36.577887 36.445852 36.314216 36.182942 36.051974
35.921267 35.790766 35.660424 35.530185 35.400000
35.777778 35.927185 36.076649 36.226222 36.375964 36.525923 36.676160 36.826720
36.977661 37.129025 37.280870 37.433229 37.586160 37.739689 37.893872 38.048726
38.204305 38.360617 38.517710 38.675585 38.834285 38.993799 39.154165 39.315362
39.477420 39.640308 39.804048 39.968596 40.133967 40.300106 40.467015 40.634630
40.802942 40.971873 41.141407 41.311449 41.481974 41.652875 41.824114 41.995572
42.167198 42.338863 42.510503 42.681975 42.853207 43.024042 43.194396 43.364103
43.533068 43.701114 43.868135 44.033946 44.198432 44.361400 44.522727 44.682213
44.839728 44.995069 45.148099 45.298612 45.446467 45.591457 45.733439 45.872208
46.007620 46.139472 46.267622 46.391873 46.512085 46.628070 46.739692 46.846772
46.949182 47.046755 47.139371 47.226876 47.309160 47.386084 47.457552 47.523441
47.583665 47.638122 47.686740 47.729436 47.766153 47.796827 47.821418 47.839883
47.852199 47.858343 47.858308 47.852095 47.839712 47.821182 47.796530 47.765800
47.729034 47.686297 47.637645 47.583165 47.522928 47.457039 47.385585 47.308688
47.226447 47.139003 47.046466 46.948992 46.846701 46.739763 46.628305 46.512511
46.392515 46.268508 46.140631 46.009083 45.874006 45.735605 45.594026 45.449475
45.302096 45.152100 44.999626 44.844884 44.688010 44.529212 44.368618 44.206432
44.042778 43.877850 43.711764 43.544709 43.376790 43.208186 43.038993 42.869380
42.699432 42.529307 42.359078 42.188892 42.018811 41.848967 41.679412 41.510267
41.341571 41.173431 41.005875 40.838997 40.672816 40.507411 40.342789 40.179020
40.016099 39.854082 39.692957 39.532766 39.373489 39.215157 39.057740 38.901260
38.745679 38.591008 38.437202 38.284263 38.132142 37.980829 37.830270 37.680449
37.531306 37.382817 37.234922 37.087587 36.940750 36.794371 36.648387 36.502753
36.357406 36.212295 36.067357 35.922538 35.777778
36.155556 36.320046 36.484597 36.649273 36.814131 36.979237 37.144644 37.310417
37.476605 37.643272 37.810460 37.978235 38.146628 38.315704 38.485487 38.656036
38.827369 38.999540 39.172556 39.346467 39.521268 39.697004 39.873659 40.051271
40.229811 40.409308 40.589722 40.771074 40.953310 41.136440 41.320397 41.505180
41.690710 41.876974 42.063878 42.251397 42.439423 42.627919 42.816762 43.005904
43.195206 43.384606 43.573955 43.763175 43.952104 44.140654 44.328646 44.515982
44.702472 44.888005 45.072380 45.255476 45.437082 45.617067 45.795214 45.971381
46.145346 46.316959 46.485995 46.652298 46.815640 46.975864 47.132739 47.286107
47.435740 47.581481 47.723106 47.860459 47.993326 48.121554 48.244938 48.363332
48.476543 48.584434 48.686825 48.783589 48.874564 48.959633 49.038654 49.111522
49.178114 49.238343 49.292104 49.339326 49.379927 49.413854 49.441048 49.461472
49.475091 49.481887 49.481849 49.474977 49.461285 49.440790 49.413530 49.379542
49.338887 49.291619 49.237823 49.177569 49.110964 49.038095 48.959090 48.874051
48.783125 48.686427 48.584124 48.476342 48.363263 48.245024 48.121823 47.993804
47.861175 47.724090 47.582766 47.437359 47.288094 47.135131 46.978699 46.818959
46.656142 46.490405 46.321982 46.151027 45.977769 45.802357 45.625018 45.445893
45.265201 45.083076 44.899730 44.715286 44.529947 44.343824 44.157110 43.969904
43.782388 43.594648 43.406853 43.219078 43.031476 42.844110 42.657121 42.470556
42.284542 42.099115 41.914388 41.730383 41.547198 41.364845 41.183407 41.002884
40.823344 40.644778 40.467241 40.290711 40.115233 39.940774 39.767365 39.594968
39.423601 39.253216 39.083821 38.915363 38.747837 38.581186 38.415394 38.250400
38.086179 37.922666 37.759828 37.597596 37.435930 37.274761 37.114040 36.953699
36.793683 36.633922 36.474359 36.314924 36.155556
36.533333 36.712944 36.892624 37.072438 37.252457 37.432743 37.613368 37.794387
37.975874 38.157877 38.340469 38.523690 38.707612 38.892266 39.077721 39.264000
39.451166 39.639233 39.828257 40.018243 40.209241 40.401242 40.594291 40.788364
40.983498 41.179658 41.376869 41.575083 41.774316 41.974502 42.175649 42.377675
42.580574 42.784252 42.988688 43.193772 43.399472 43.605661 43.812292 44.019223
44.226393 44.433646 44.640905 44.847999 45.054837 45.261234 45.467085 45.672191
45.876435 46.079604 46.281569 46.482105 46.681072 46.878237 47.073447 47.266462
47.457122 47.645179 47.830467 48.012734 48.191808 48.367437 48.539447 48.707585
48.871676 49.031473 49.186801 49.337421 49.483159 49.623787 49.759138 49.888993
50.013196 50.131541 50.243883 50.350031 50.449854 50.543180 50.629890 50.709835
50.782912 50.848992 50.907990 50.959802 51.004361 51.041587 51.071431 51.093842
51.108789 51.116247 51.116205 51.108666 51.093639 51.071152 51.041236 51.003944
50.959328 50.907467 50.848430 50.782323 50.709233 50.629288 50.542594 50.449303
50.349533 50.243458 50.131212 50.012986 49.888927 49.759243 49.624090 49.483692
49.338213 49.187887 49.032886 48.873453 48.709764 48.542068 48.370543 48.195441
48.016938 47.835290 47.650670 47.463331 47.273442 47.081251 46.886921 46.690695
46.492726 46.293249 46.092407 45.890426 45.687436 45.483654 45.279196 45.074266
44.868968 44.663491 44.457926 44.252447 44.047131 43.842138 43.637528 43.433447
43.229942 43.027142 42.825079 42.623868 42.423527 42.224154 42.025756 41.828415
41.632124 41.436951 41.242879 41.049960 40.858166 40.667535 40.478030 40.289676
40.102425 39.916290 39.731217 39.547206 39.364195 39.182175 39.001077 38.820881
38.641516 38.462950 38.285109 38.107952 37.931404 37.755415 37.579909 37.404830
37.230101 37.055660 36.881431 36.707347 36.533333
36.911111 37.105884 37.300731 37.495728 37.690945 37.886461 38.082339 38.278660
38.475480 38.672879 38.870908 39.069643 39.269127 39.469434 39.670597 39.872686
40.075723 40.279774 40.484849 40.691007 40.898247 41.106620 41.316110 41.526762
41.738545 41.951494 42.165563 42.380776 42.597072 42.814464 43.032874 43.252302
43.472654 43.693916 43.915977 44.138809 44.362284 44.586358 44.810888 45.035814
45.260974 45.486294 45.711595 45.936788 46.161677 46.386157 46.610018 46.833140
47.055297 47.276356 47.496077 47.714314 47.930817 48.145426 48.357882 48.568013
48.775555 48.980326 49.182054 49.380555 49.575551 49.766854 49.954187 50.137358
50.316094 50.490202 50.659417 50.823546 50.982333 51.135593 51.283079 51.424614
51.559965 51.688966 51.811402 51.927118 52.035918 52.137663 52.232178 52.319340
52.398998 52.471047 52.535361 52.591856 52.640431 52.681022 52.713558 52.737995
52.754291 52.762424 52.762380 52.754159 52.737778 52.713258 52.680646 52.639984
52.591347 52.534800 52.470444 52.398367 52.318695 52.231534 52.137038 52.035331
51.926589 51.810953 51.688621 51.559749 51.424554 51.283204 51.135934 50.982922
50.824417 50.660605 50.491747 50.318033 50.139733 49.957041 49.770232 49.579500
49.385123 49.187293 48.986288 48.782295 48.575588 48.366349 48.154848 47.941255
47.725833 47.508743 47.290238 47.070466 46.849668 46.627980 46.405629 46.182737
45.959518 45.736076 45.512610 45.289211 45.066061 44.843234 44.620895 44.399103
44.178007 43.957649 43.738161 43.519571 43.301993 43.085440 42.870008 42.655699
42.442592 42.230675 42.020010 41.810573 41.602411 41.395490 41.189842 40.985421
40.782246 40.580261 40.379473 40.179818 39.981289 39.783816 39.587381 39.391908
39.197368 39.003681 38.810807 38.618664 38.427203 38.236340 38.046018 37.856152
37.666677 37.477510 37.288581 37.099806 36.911111
37.288889 37.498867 37.708927 37.919147 38.129612 38.340395 38.551582 38.763240
38.975455 39.188286 39.401819 39.616104 39.831225 40.047222 40.264175 40.482113
40.701112 40.921189 41.142413 41.364790 41.588380 41.813175 42.039227 42.266513
42.495075 42.724874 42.955942 43.188223 43.421737 43.656410 43.892249 44.129164
44.367146 44.606086 44.845962 45.086646 45.328099 45.570175 45.812819 46.055865
46.299242 46.542766 46.786349 47.029788 47.272979 47.515701 47.757833 47.999138
48.239480 48.478606 48.716364 48.952489 49.186813 49.419061 49.649052 49.876501
50.101217 50.322907 50.541371 50.756313 50.967525 51.174709 51.377655 51.576065
51.769728 51.958351 52.141724 52.319561 52.491657 52.657738 52.817605 52.970997
53.117726 53.257549 53.390290 53.515724 53.633690 53.743988 53.846473 53.940967
54.027347 54.105462 54.175207 54.236460 54.289138 54.333150 54.368436 54.394933
54.412607 54.421426 54.421378 54.412466 54.394701 54.368116 54.332749 54.288662
54.235917 54.174609 54.104820 54.026676 53.940281 53.845789 53.743325 53.633068
53.515165 53.389818 53.257190 53.117507 52.970946 52.817754 52.658120 52.492307
52.320514 52.143020 51.960029 51.771832 51.578638 51.380744 51.178363 50.971794
50.761248 50.547029 50.329344 50.108491 49.884674 49.658187 49.429222 49.198069
48.964908 48.730019 48.493570 48.255830 48.016952 47.777190 47.536684 47.295673
47.054280 46.812727 46.571120 46.329666 46.088453 45.847667 45.607383 45.367767
45.128875 44.890858 44.653752 44.417691 44.182696 43.948879 43.716248 43.484897
43.254819 43.026089 42.798688 42.572674 42.348014 42.124750 41.902838 41.682304
41.463093 41.245217 41.028611 40.813274 40.599134 40.386174 40.174317 39.963535
39.753743 39.544903 39.336928 39.129768 38.923333 38.717563 38.512369 38.307682
38.103413 37.899485 37.695810 37.492307 37.288889
37.666667 37.891896 38.117212 38.342706 38.568459 38.794565 39.021099 39.248156
39.475803 39.704133 39.933208 40.163118 40.393914 40.625683 40.858466 41.092345
41.327348 41.563552 41.800972 42.039678 42.279669 42.521007 42.763676 43.007729
43.253132 43.499926 43.748062 43.997569 44.248377 44.500502 44.753857 45.008441
45.264150 45.520966 45.778763 46.037509 46.297058 46.557359 46.818246 47.079650
47.341386 47.603365 47.865383 48.127333 48.388990 48.650230 48.910809 49.170586
49.429299 49.686790 49.942782 50.197100 50.449453 50.699652 50.947393 51.192476
51.434588 51.673515 51.908940 52.140641 52.368296 52.591677 52.810462 53.024422
53.233236 53.436674 53.634424 53.826259 54.011875 54.191051 54.363500 54.529008
54.687303 54.838186 54.981403 55.116772 55.244061 55.363104 55.473695 55.575689
55.668907 55.753225 55.828496 55.894616 55.951470 55.998981 56.037065 56.065670
56.084746 56.094267 56.094217 56.084596 56.065424 56.036726 55.998556 55.950966
55.894042 55.827863 55.752547 55.668197 55.574964 55.472973 55.362405 55.243407
55.116186 54.980912 54.837815 54.687082 54.528969 54.363675 54.191477 54.012587
53.827297 53.635829 53.438490 53.235507 53.027197 52.813790 52.595610 52.372887
52.145948 51.915020 51.680430 51.442399 51.201250 50.957197 50.710556 50.461529
50.210423 49.957429 49.702840 49.446833 49.189688 48.931564 48.672728 48.413320
48.153589 47.893660 47.633761 47.373998 47.114582 46.855599 46.597241 46.339575
46.082772 45.826882 45.572055 45.318324 45.065818 44.814553 44.564638 44.316073
44.068949 43.823249 43.579045 43.336308 43.095089 42.855348 42.617119 42.380348
42.145055 41.911174 41.678710 41.447588 41.217798 40.989258 40.761943 40.535767
40.310690 40.086622 39.863512 39.641266 39.419823 39.199086 38.978986 38.759423
38.540322 38.321584 38.103125 37.884849 37.666667
38.044444 38.284971 38.525594 38.766404 39.007501 39.248971 39.490913 39.733407
39.976553 40.220422 40.465114 40.710688 40.957241 41.204823 41.453528 41.703390
41.954498 42.206876 42.460603 42.715688 42.972202 43.230139 43.489560 43.750441
44.012832 44.276691 44.542055 44.808864 45.077140 45.346803 45.617862 45.890213
46.163850 46.438649 46.714585 46.991513 47.269389 47.548048 47.827425 48.107332
48.387687 48.668280 48.949008 49.229640 49.510052 49.789994 50.069323 50.347768
50.625166 50.901231 51.175780 51.448510 51.719223 51.987601 52.253432 52.516384
52.776234 53.032641 53.285370 53.534075 53.778514 54.018339 54.253302 54.483055
54.707350 54.925845 55.138291 55.344357 55.543798 55.736295 55.921613 56.099449
56.269578 56.431717 56.585659 56.731141 56.867973 56.995920 57.114812 57.224443