# vtk DataFile Version 3.0
Steady-state temperature (Jacobi)
ASCII
DATASET STRUCTURED_POINTS
DIMENSIONS 181 181 1
ORIGIN 0.0 0.0 0.0
SPACING 0.05 0.05 1.0
POINT_DATA 32761
SCALARS Temperature float 1
LOOKUP_TABLE default
32.000000 32.000000 32.000000 32.000000 32.000000 32.000000 32.000000 32.000000
32.000000 32.000000 32.000000 32.000000 32.000000 32.000000 32.000000 32.000000
32.000000 32.000000 32.000000 32.000000 32.000000 32.000000 32.000000 32.000000
32.000000 32.000000 32.000000 32.000000 32.000000 32.000000 32.000000 32.000000
32.000000 32.000000 32.000000 32.000000 32.000000 32.000000 32.000000 32.000000
32.000000 32.000000 32.000000 32.000000 32.000000 32.000000 32.000000 32.000000
32.000000 32.000000 32.000000 32.000000 32.000000 32.000000 32.000000 32.000000
32.000000 32.000000 32.000000 32.000000 32.000000 32.000000 32.000000 32.000000
32.000000 32.000000 32.000000 32.000000 32.000000 32.000000 32.000000 32.000000
32.000000 32.000000 32.000000 32.000000 32.000000 32.000000 32.000000 32.000000
32.000000 32.000000 32.000000 32.000000 32.000000 32.000000 32.000000 32.000000
32.000000 32.000000 32.000000 32.000000 32.000000 32.000000 32.000000 32.000000
32.000000 32.000000 32.000000 32.000000 32.000000 32.000000 32.000000 32.000000
32.000000 32.000000 32.000000 32.000000 32.000000 32.000000 32.000000 32.000000
32.000000 32.000000 32.000000 32.000000 32.000000 32.000000 32.000000 32.000000
32.000000 32.000000 32.000000 32.000000 32.000000 32.000000 32.000000 32.000000
32.000000 32.000000 32.000000 32.000000 32.000000 32.000000 32.000000 32.000000
32.000000 32.000000 32.000000 32.000000 32.000000 32.000000 32.000000 32.000000
32.000000 32.000000 32.000000 32.000000 32.000000 32.000000 32.000000 32.000000
32.000000 32.000000 32.000000 32.000000 32.000000 32.000000 32.000000 32.000000
32.000000 32.000000 32.000000 32.000000 32.000000 32.000000 32.000000 32.000000
32.000000 32.000000 32.000000 32.000000 32.000000 32.000000 32.000000 32.000000
32.000000 32.000000 32.000000 32.000000 32.000000
32.377778 32.377970 32.378177 32.378416 32.378700 32.379048 32.379470 32.379986
32.380605 32.381349 32.382224 32.383253 32.384438 32.385805 32.387354 32.389109
32.391070 32.393262 32.395679 32.398349 32.401264 32.404449 32.407895 32.411629
32.415636 32.419944 32.424535 32.429437 32.434629 32.440138 32.445941 32.452064
32.458480 32.465215 32.472239 32.479577 32.487197 32.495122 32.503316 32.511803
32.520544 32.529561 32.538812 32.548317 32.558034 32.567981 32.578113 32.588445
32.598932 32.609589 32.620365 32.631276 32.642271 32.653362 32.664498 32.675689
32.686884 32.698091 32.709259 32.720394 32.731446 32.742420 32.753266 32.763987
32.774534 32.784911 32.795070 32.805011 32.814691 32.824109 32.833223 32.842032
32.850496 32.858616 32.866352 32.873705 32.880641 32.887160 32.893229 32.898850
32.903996 32.908665 32.912837 32.916509 32.919666 32.922307 32.924418 32.926000
32.927045 32.927553 32.927520 32.926949 32.925839 32.924193 32.922017 32.919311
32.916089 32.912350 32.908112 32.903375 32.898162 32.892473 32.886334 32.879745
32.872738 32.865313 32.857504 32.849311 32.840772 32.831886 32.822696 32.813200
32.803442 32.793420 32.783181 32.772722 32.762093 32.751288 32.740358 32.729299
32.718162 32.706940 32.695686 32.684392 32.673111 32.661833 32.650610 32.639432
32.628351 32.617354 32.606492 32.595751 32.585181 32.574767 32.564555 32.554530
32.544737 32.535157 32.525835 32.516750 32.507944 32.499395 32.491143 32.483164
32.475495 32.468112 32.461049 32.454280 32.447836 32.441692 32.435874 32.430356
32.425163 32.420268 32.415692 32.411408 32.407433 32.403741 32.400347 32.397223
32.394381 32.391794 32.389471 32.387385 32.385542 32.383917 32.382511 32.381300
32.380284 32.379438 32.378761 32.378227 32.377834 32.377557 32.377391 32.377313
32.377314 32.377375 32.377484 32.377623 32.377778
32.755556 32.755950 32.756377 32.756864 32.757446 32.758148 32.759008 32.760046
32.761303 32.762795 32.764565 32.766624 32.769019 32.771753 32.774876 32.778387
32.782337 32.786719 32.791585 32.796923 32.802785 32.809153 32.816081 32.823545
32.831597 32.840209 32.849433 32.859232 32.869660 32.880673 32.892325 32.904566
32.917446 32.930911 32.945011 32.959683 32.974975 32.990820 33.007265 33.024235
33.041774 33.059804 33.078365 33.097374 33.116868 33.136760 33.157084 33.177749
33.198785 33.220097 33.241714 33.263536 33.285589 33.307772 33.330107 33.352492
33.374944 33.397361 33.419758 33.442033 33.464198 33.486150 33.507900 33.529347
33.550499 33.571257 33.591629 33.611517 33.630928 33.649770 33.668045 33.685669
33.702642 33.718885 33.734399 33.749110 33.763019 33.776059 33.788231 33.799476
33.809794 33.819136 33.827501 33.834849 33.841179 33.846462 33.850695 33.853860
33.855956 33.856972 33.856907 33.855763 33.853539 33.850245 33.845882 33.840469
33.834008 33.826528 33.818030 33.808553 33.798100 33.786717 33.774407 33.761227
33.747176 33.732321 33.716662 33.700271 33.683148 33.665373 33.646944 33.627946
33.608378 33.588330 33.567797 33.546875 33.525558 33.503945 33.482026 33.459905
33.437569 33.415122 33.392552 33.369962 33.347335 33.324777 33.302268 33.279911
33.257685 33.235691 33.213904 33.192424 33.171221 33.150393 33.129909 33.109860
33.090213 33.071057 33.052353 33.034187 33.016517 32.999424 32.982864 32.966911
32.951519 32.936759 32.922581 32.909048 32.896111 32.883827 32.872145 32.861115
32.850686 32.840901 32.831707 32.823143 32.815155 32.807776 32.800951 32.794706
32.788989 32.783818 32.779141 32.774971 32.771257 32.768007 32.765170 32.762748
32.760692 32.759000 32.757623 32.756554 32.755747 32.755191 32.754840 32.754680
32.754668 32.754783 32.754988 32.755257 32.755556
33.133333 33.133953 33.134618 33.135379 33.136275 33.137361 33.138671 33.140266
33.142170 33.144448 33.147120 33.150254 33.153860 33.158011 33.162710 33.168030
33.173967 33.180599 33.187909 33.195978 33.204783 33.214403 33.224806 33.236074
33.248165 33.261159 33.275007 33.289788 33.305443 33.322051 33.339542 33.357995
33.377331 33.397625 33.418791 33.440900 33.463857 33.487731 33.512418 33.537983
33.564313 33.591472 33.619338 33.647968 33.677236 33.707195 33.737709 33.768829
33.800413 33.832507 33.864964 33.897824 33.930938 33.964340 33.997878 34.031581
34.065296 34.099048 34.132681 34.166218 34.199503 34.232553 34.265216 34.297505
34.329271 34.360523 34.391117 34.421059 34.450211 34.478576 34.506024 34.532555
34.558047 34.582500 34.605801 34.627947 34.648837 34.668468 34.686749 34.703678
34.719175 34.733238 34.745802 34.756864 34.766372 34.774324 34.780683 34.785448
34.788595 34.790125 34.790029 34.788307 34.784966 34.780008 34.773454 34.765307
34.755602 34.744342 34.731579 34.717314 34.701614 34.684480 34.665991 34.646149
34.625046 34.602684 34.579165 34.554491 34.528775 34.502016 34.474338 34.445739
34.416351 34.386170 34.355334 34.323837 34.291823 34.259284 34.226369 34.193064
34.159523 34.125729 34.091836 34.057824 34.023848 33.989883 33.956084 33.922422
33.889049 33.855931 33.823219 33.790873 33.759039 33.727674 33.696920 33.666726
33.637230 33.608378 33.580298 33.552935 33.526409 33.500658 33.475798 33.451763
33.428659 33.406416 33.385133 33.364737 33.345317 33.326799 33.309263 33.292631
33.276974 33.262214 33.248413 33.235489 33.223497 33.212355 33.202108 33.192673
33.184086 33.176267 33.169241 33.162928 33.157346 33.152417 33.148149 33.144467
33.141370 33.138786 33.136706 33.135062 33.133836 33.132963 33.132420 33.132145
33.132107 33.132249 33.132534 33.132910 33.133333
33.511111 33.511987 33.512927 33.513987 33.515239 33.516731 33.518540 33.520706
33.523312 33.526388 33.530024 33.534239 33.539127 33.544697 33.551048 33.558177
33.566186 33.575062 33.584910 33.595704 33.607551 33.620413 33.634400 33.649461
33.665705 33.683070 33.701664 33.721414 33.742426 33.764614 33.788083 33.812735
33.838671 33.865781 33.894165 33.923698 33.954478 33.986369 34.019463 34.053613
34.088905 34.125184 34.162530 34.200776 34.239997 34.280017 34.320906 34.362479
34.404798 34.447673 34.491159 34.535059 34.579423 34.624048 34.668978 34.714008
34.759174 34.804269 34.849325 34.894134 34.938721 34.982882 35.026635 35.069780
35.112331 35.154091 35.195071 35.235082 35.274130 35.312035 35.348800 35.384254
35.418399 35.451077 35.482286 35.511882 35.539862 35.566097 35.590583 35.613206
35.633963 35.652757 35.669585 35.684368 35.697104 35.707731 35.716249 35.722617
35.726833 35.728878 35.728749 35.726448 35.721975 35.715349 35.706572 35.695684
35.682687 35.667640 35.650546 35.631483 35.610455 35.587557 35.562794 35.536279
35.508015 35.478132 35.446631 35.413659 35.379214 35.343457 35.306385 35.268169
35.228806 35.188477 35.147173 35.105087 35.062206 35.018728 34.974638 34.930138
34.885209 34.840056 34.794655 34.749212 34.703699 34.658321 34.613043 34.568071
34.523361 34.479118 34.435292 34.392080 34.349429 34.307529 34.266320 34.225987
34.186461 34.147920 34.110290 34.073738 34.038185 34.003789 33.970464 33.938359
33.907382 33.877671 33.849130 33.821886 33.795838 33.771101 33.747572 33.725353
33.704338 33.684618 33.666085 33.648816 33.632703 33.617812 33.604033 33.591420
33.579863 33.569404 33.559936 33.551486 33.543951 33.537346 33.531570 33.526627
33.522419 33.518940 33.516094 33.513866 33.512164 33.510964 33.510178 33.509771
33.509664 33.509811 33.510139 33.510595 33.511111
33.888889 33.890065 33.891317 33.892730 33.894368 33.896326 33.898658 33.901465
33.904791 33.908744 33.913355 33.918739 33.924914 33.932002 33.940005 33.949050
33.959128 33.970366 33.982743 33.996390 34.011268 34.027512 34.045068 34.064071
34.084452 34.106346 34.129670 34.154558 34.180909 34.208856 34.238284 34.269322
34.301840 34.335964 34.371548 34.408714 34.447300 34.487423 34.528909 34.571867
34.616109 34.661739 34.708554 34.756652 34.805819 34.856144 34.907402 34.959674
35.012727 35.066633 35.121150 35.176342 35.231961 35.288063 35.344393 35.401001
35.457628 35.514317 35.570808 35.627135 35.683041 35.738552 35.793414 35.847647
35.901001 35.953493 36.004880 36.055173 36.104138 36.151782 36.197885 36.242449
36.285268 36.326341 36.365479 36.402678 36.437767 36.470742 36.501449 36.529884
36.555915 36.579538 36.600642 36.619223 36.635195 36.648553 36.659236 36.667240
36.672528 36.675099 36.674938 36.672047 36.666438 36.658111 36.647105 36.633421
36.617122 36.598211 36.576775 36.552816 36.526446 36.497668 36.466615 36.433290
36.397846 36.360288 36.320786 36.279344 36.236151 36.191208 36.144722 36.096689
36.047330 35.996639 35.944849 35.891949 35.838182 35.783532 35.728250 35.672315
35.615982 35.559225 35.502302 35.445180 35.388118 35.331075 35.274310 35.217774
35.161724 35.106103 35.051161 34.996834 34.943367 34.890686 34.839028 34.788312
34.738765 34.690298 34.643127 34.597156 34.552590 34.509324 34.467550 34.427159
34.388327 34.350941 34.315162 34.280870 34.248214 34.217068 34.187567 34.159581
34.133228 34.108378 34.085133 34.063359 34.043144 34.024353 34.007060 33.991128
33.976615 33.963387 33.951488 33.940782 33.931301 33.922911 33.915629 33.909327
33.904006 33.899542 33.895923 33.893031 33.890841 33.889242 33.888194 33.887594
33.887392 33.887491 33.887829 33.888319 33.888889
34.266667 34.268195 34.269820 34.271626 34.273722 34.276179 34.279115 34.282588
34.286726 34.291573 34.297264 34.303827 34.311406 34.320014 34.329798 34.340757
34.353044 34.366638 34.381698 34.398185 34.416261 34.435870 34.457174 34.480100
34.504810 34.531214 34.559471 34.589474 34.621381 34.655064 34.690680 34.728082
34.767423 34.808539 34.851576 34.896351 34.943008 34.991344 35.041496 35.093245
35.146720 35.201686 35.258263 35.316202 35.375614 35.436236 35.498170 35.561139
35.625236 35.690173 35.756035 35.822524 35.889713 35.957299 36.025345 36.093543
36.161947 36.230244 36.298481 36.366345 36.433872 36.500755 36.567021 36.632365
36.696810 36.760059 36.822125 36.882725 36.941866 36.999276 37.054960 37.108660
37.160376 37.209871 37.257141 37.301968 37.344348 37.384084 37.421172 37.455438
37.486878 37.515346 37.540835 37.563227 37.582518 37.598616 37.611519 37.621166
37.627554 37.630652 37.630460 37.626977 37.620203 37.610170 37.596879 37.580390
37.560707 37.537919 37.512031 37.483161 37.451315 37.416637 37.379134 37.338978
37.296172 37.250914 37.203207 37.153270 37.101105 37.046951 36.990807 36.932931
36.873317 36.812239 36.749688 36.685950 36.621011 36.555166 36.488396 36.421005
36.352965 36.284585 36.215831 36.147013 36.078088 36.009369 35.940801 35.872695
35.804988 35.737984 35.671613 35.606171 35.541576 35.478118 35.415705 35.354614
35.294746 35.236365 35.179361 35.123987 35.070122 35.018005 34.967508 34.918851
34.871901 34.826861 34.783590 34.742275 34.702769 34.665240 34.629536 34.595808
34.563900 34.533945 34.505782 34.479526 34.455016 34.432348 34.411359 34.392128
34.374492 34.358511 34.344024 34.331075 34.319504 34.309337 34.300419 34.292759
34.286206 34.280753 34.276254 34.272687 34.269914 34.267897 34.266504 34.265684
34.265314 34.265329 34.265616 34.266096 34.266667
34.644444 34.646391 34.648444 34.650723 34.653321 34.656368 34.659942 34.664187
34.669161 34.675020 34.681806 34.689681 34.698671 34.708946 34.720512 34.733546
34.748035 34.764161 34.781891 34.801411 34.822668 34.845848 34.870880 34.897951
34.926967 34.958115 34.991281 35.026651 35.064086 35.103772 35.145549 35.189596
35.235733 35.284136 35.334599 35.387295 35.441997 35.498868 35.557664 35.618539
35.681227 35.745875 35.812199 35.880335 35.949981 36.021263 36.093866 36.167901
36.243040 36.319385 36.396595 36.474758 36.553526 36.632976 36.712751 36.792917
36.873113 36.953394 37.033396 37.113166 37.192341 37.270955 37.348652 37.425458
37.501022 37.575363 37.648141 37.719368 37.788718 37.856195 37.921491 37.984608
38.045253 38.103426 38.158859 38.211546 38.261244 38.307948 38.351441 38.391715
38.428586 38.462045 38.491937 38.518256 38.540879 38.559801 38.574933 38.586272
38.593765 38.597407 38.597183 38.593092 38.585150 38.573360 38.557775 38.538398
38.515317 38.488537 38.458179 38.424251 38.386907 38.346153 38.302176 38.254982
38.204787 38.151597 38.095656 38.036966 37.975798 37.912152 37.846319 37.778297
37.708397 37.636612 37.563270 37.488357 37.412216 37.334827 37.256542 37.177334
37.097563 37.017191 36.936584 36.855697 36.774893 36.694118 36.613735 36.533679
36.454307 36.375544 36.297740 36.220807 36.145087 36.070482 35.997320 35.925492
35.855314 35.786663 35.719843 35.654719 35.591577 35.530273 35.471076 35.413831
35.358788 35.305785 35.255050 35.206416 35.160088 35.115893 35.074017 35.034280
34.996846 34.961532 34.928480 34.897504 34.868726 34.841957 34.817298 34.794559
34.773820 34.754893 34.737837 34.722465 34.708816 34.696709 34.686160 34.676993
34.669207 34.662629 34.657242 34.652880 34.649506 34.646964 34.645199 34.644065
34.643492 34.643341 34.643530 34.643931 34.644444
35.022222 35.024658 35.027224 35.030033 35.033231 35.036914 35.041240 35.046289
35.052230 35.059124 35.067150 35.076350 35.086913 35.098859 35.112386 35.127491
35.144379 35.163025 35.183640 35.206175 35.230843 35.257574 35.286582 35.317772
35.351359 35.387225 35.425583 35.466289 35.509555 35.555212 35.603468 35.654129
35.707398 35.763055 35.821298 35.881883 35.944999 36.010379 36.078202 36.148178
36.220476 36.294786 36.371265 36.449582 36.529882 36.611814 36.695513 36.780610
36.867227 36.954980 37.043977 37.133822 37.224611 37.315937 37.407883 37.500035
37.592463 37.684750 37.776954 37.868656 37.959903 38.050281 38.139824 38.228125
38.315209 38.400680 38.484552 38.566444 38.646365 38.723948 38.799197 38.871768
38.941657 39.008545 39.072426 39.133008 39.190281 39.243983 39.294104 39.340415
39.382905 39.421379 39.455827 39.486091 39.512163 39.533922 39.551362 39.564402
39.573038 39.577228 39.576972 39.572269 39.563120 39.549565 39.531608 39.509330
39.482735 39.451944 39.416964 39.377954 39.334923 39.288065 39.237390 39.183128
39.125287 39.064132 38.999669 38.932191 38.861704 38.788529 38.712666 38.634462
38.553912 38.471382 38.386865 38.300742 38.212999 38.124032 38.033817 37.942761
37.850831 37.758442 37.665548 37.572567 37.479445 37.386597 37.293957 37.201938
37.110460 37.019929 36.930253 36.841829 36.754550 36.668801 36.584464 36.501908
36.421001 36.342098 36.265052 36.190199 36.117383 36.046918 35.978637 35.912833
35.849328 35.788394 35.729842 35.673921 35.620435 35.569610 35.521240 35.475529
35.432265 35.391627 35.353401 35.317738 35.284423 35.253583 35.225002 35.198782
35.174708 35.152856 35.133015 35.115237 35.099313 35.085273 35.072913 35.062241
35.053058 35.045350 35.038926 35.033753 35.029647 35.026554 35.024301 35.022817
35.021938 35.021575 35.021577 35.021839 35.022222
35.400000 35.403013 35.406164 35.409607 35.413464 35.417903 35.423027 35.429018
35.435957 35.444042 35.453329 35.464028 35.476174 35.489985 35.505472 35.522861
35.542139 35.563540 35.587022 35.612826 35.640883 35.671437 35.704394 35.739996
35.778124 35.819020 35.862536 35.908912 35.957972 36.009954 36.064653 36.122301
36.182665 36.245971 36.311958 36.380844 36.452341 36.526657 36.603477 36.682999
36.764883 36.849314 36.935929 37.024898 37.115838 37.208904 37.303692 37.400344
37.498437 37.598097 37.698887 37.800918 37.903740 38.007448 38.111583 38.216226
38.320910 38.425704 38.530138 38.634266 38.737620 38.840242 38.941670 39.041933
39.140578 39.237626 39.332637 39.425622 39.516158 39.604250 39.689497 39.771896
39.851073 39.927020 39.999392 40.068178 40.133064 40.194039 40.250824 40.303407
40.351547 40.395232 40.434261 40.468624 40.498164 40.522871 40.542632 40.557439
40.567225 40.571986 40.571698 40.566361 40.555998 40.540611 40.520270 40.494978
40.464851 40.429895 40.390268 40.345981 40.297232 40.244034 40.186627 40.125022
40.059498 39.990066 39.917041 39.840430 39.760582 39.677502 39.591565 39.502774
39.411530 39.317829 39.222093 39.124311 39.024924 38.923912 38.821729 38.718344
38.614222 38.509322 38.404112 38.298539 38.193073 38.087649 37.982733 37.878246
37.774649 37.671847 37.570294 37.469879 37.371042 37.273658 37.178153 37.084386
36.992765 36.903135 36.815885 36.730844 36.648379 36.568308 36.490974 36.416182
36.344250 36.274972 36.208641 36.145040 36.084436 36.026604 35.971782 35.919740
35.870687 35.824389 35.781026 35.740360 35.702545 35.667339 35.634870 35.604893
35.577510 35.552480 35.529874 35.509455 35.491270 35.475084 35.460919 35.448546
35.437963 35.428949 35.421476 35.415333 35.410471 35.406687 35.403911 35.401952
35.400720 35.400037 35.399792 35.399823 35.400000
35.777778 35.781457 35.785300 35.789451 35.794092 35.799345 35.805410 35.812386
35.820488 35.829792 35.840525 35.852740 35.866675 35.882355 35.900030 35.919699
35.941617 35.965756 35.992379 36.021428 36.053170 36.087519 36.124742 36.164723
36.207732 36.253620 36.302657 36.354663 36.409904 36.468169 36.529719 36.594312
36.662201 36.733115 36.807297 36.884446 36.964796 37.048013 37.134321 37.223359
37.315336 37.409864 37.507137 37.606742 37.708857 37.813046 37.919472 38.027674
38.137801 38.249373 38.362520 38.476748 38.592170 38.708279 38.825171 38.942330
39.059836 39.177168 39.294391 39.410982 39.526991 39.641901 39.755747 39.868019
39.978742 40.087417 40.194060 40.298189 40.399809 40.498461 40.594144 40.686423
40.775293 40.860348 40.941580 41.018617 41.091446 41.159737 41.223473 41.282365
41.336398 41.385326 41.429133 41.467622 41.500779 41.528452 41.550633 41.567220
41.578206 41.583541 41.583221 41.577247 41.565620 41.548391 41.525564 41.497242
41.463432 41.424286 41.379815 41.330219 41.275510 41.215934 41.151507 41.082517
41.008980 40.931225 40.849268 40.763476 40.673860 40.580824 40.484376 40.384947
40.282541 40.177616 40.070168 39.960678 39.849131 39.736028 39.621342 39.505586
39.388724 39.271275 39.153190 39.034993 38.916619 38.798592 38.680833 38.563859
38.447576 38.332493 38.218498 38.106088 37.995135 37.886121 37.778899 37.673933
37.571061 37.470725 37.372746 37.277543 37.184922 37.095277 37.008399 36.924655
36.843824 36.766243 36.691680 36.620442 36.552288 36.487494 36.425810 36.367483
36.312253 36.260339 36.211475 36.165849 36.123191 36.083657 36.046979 36.013280
35.982292 35.954111 35.928467 35.905428 35.884729 35.866409 35.850209 35.836139
35.823947 35.813618 35.804908 35.797776 35.791990 35.787483 35.784036 35.781557
35.779843 35.778779 35.778176 35.777900 35.777778
36.155556 36.160010 36.164634 36.169621 36.175117 36.181333 36.188393 36.196525
36.205828 36.216545 36.228749 36.242695 36.258429 36.276219 36.296081 36.318292
36.342839 36.370006 36.399748 36.432357 36.467755 36.506236 36.547690 36.592414
36.640263 36.691535 36.746049 36.804100 36.865475 36.930463 36.998817 37.070820
37.146189 37.225198 37.307532 37.393455 37.482616 37.575268 37.671029 37.770135
37.872175 37.977371 38.085280 38.196107 38.309384 38.425298 38.543354 38.663721
38.785882 38.909988 39.035502 39.162556 39.290597 39.419738 39.549413 39.679718
39.810080 39.940575 40.070628 40.200297 40.329009 40.456808 40.583124 40.707989
40.830845 40.951710 41.070043 41.185850 41.298614 41.408331 41.514509 41.617139
41.715758 41.810354 41.900499 41.986177 42.067000 42.142950 42.213684 42.279182
42.339147 42.393563 42.442181 42.484988 42.521787 42.552566 42.577185 42.595635
42.607830 42.613767 42.613415 42.606776 42.593876 42.574720 42.549392 42.517900
42.480383 42.436854 42.387507 42.332355 42.271647 42.205398 42.133905 42.057186
41.975585 41.889119 41.798175 41.702769 41.603330 41.499868 41.392848 41.282278
41.168650 41.051967 40.932748 40.810988 40.687226 40.561447 40.434207 40.305478
40.175829 40.045216 39.914215 39.782769 39.651453 39.520194 39.389565 39.259474
39.130487 39.002493 38.876048 38.751021 38.627952 38.506692 38.387762 38.270995
38.156888 38.045256 37.936574 37.830636 37.727891 37.628117 37.531734 37.438504
37.348817 37.262421 37.179672 37.100308 37.024653 36.952432 36.883936 36.818882
36.757526 36.699579 36.645263 36.594283 36.546828 36.502601 36.461755 36.423993
36.389435 36.357786 36.329132 36.303181 36.279989 36.259268 36.241043 36.225032
36.211230 36.199366 36.189406 36.181089 36.174352 36.168947 36.164785 36.161634
36.159379 36.157802 36.156766 36.156070 36.155556
36.533333 36.538670 36.544205 36.550114 36.556616 36.563863 36.572094 36.581432
36.592135 36.604298 36.618195 36.633891 36.651674 36.671578 36.693902 36.718649
36.746126 36.776302 36.809493 36.845633 36.885043 36.927621 36.973692 37.023116
37.076219 37.132826 37.193258 37.257304 37.325282 37.396942 37.472596 37.551957
37.635328 37.722384 37.813417 37.908067 38.006613 38.108658 38.214466 38.323606
38.436326 38.552161 38.671343 38.793373 38.918464 39.046091 39.176445 39.308975
39.443851 39.580498 39.719068 39.858964 40.000317 40.142516 40.285669 40.429155
40.573063 40.716765 40.860330 41.003129 41.145213 41.285958 41.425398 41.562918
41.698538 41.831658 41.962285 42.089839 42.214319 42.335169 42.452379 42.565426
42.674293 42.778492 42.878004 42.972383 43.061604 43.145268 43.223352 43.295503
43.361700 43.421645 43.475317 43.522473 43.563098 43.597007 43.624187 43.644514
43.657980 43.664524 43.664141 43.656831 43.642597 43.621500 43.593548 43.558862
43.517455 43.469511 43.415045 43.354298 43.287291 43.214321 43.135410 43.050908
42.960838 42.865600 42.765217 42.660135 42.550374 42.436421 42.318292 42.196512
42.071090 41.942581 41.810988 41.676891 41.540284 41.401767 41.261320 41.119561
40.976454 40.832627 40.688028 40.543289 40.398341 40.253815 40.109622 39.966387
39.824003 39.683082 39.543498 39.405847 39.269982 39.136481 39.005174 38.876618
38.750622 38.627717 38.507693 38.391052 38.277563 38.167700 38.061213 37.958543
37.859425 37.764263 37.672779 37.585343 37.501662 37.422070 37.346263 37.274539
37.206585 37.142661 37.082449 37.026169 36.973501 36.924629 36.879227 36.837445
36.798957 36.763876 36.731880 36.703045 36.677054 36.653948 36.633418 36.615472
36.599808 36.586402 36.574964 36.565439 36.557548 36.551208 36.546154 36.542276
36.539324 36.537162 36.535559 36.534353 36.533333
36.911111 36.917457 36.924007 36.930990 36.938583 36.947036 36.956500 36.967246
36.979393 36.993232 37.008849 37.026552 37.046395 37.068697 37.093481 37.121075
37.151467 37.184995 37.221608 37.261652 37.305039 37.352117 37.402760 37.457318
37.515625 37.578030 37.644327 37.714862 37.789387 37.868242 37.951140 38.038412
38.129730 38.225414 38.325095 38.429082 38.536964 38.649037 38.764851 38.884684
39.008050 39.135207 39.265635 39.399570 39.536460 39.676520 39.819166 39.964593
40.112188 40.262123 40.413763 40.567255 40.721945 40.877959 41.034626 41.192049
41.349549 41.507207 41.664339 41.821006 41.976525 42.130938 42.283570 42.434446
42.582904 42.728953 42.871951 43.011896 43.148169 43.280758 43.409077 43.533106
43.652294 43.766617 43.875566 43.979113 44.076798 44.168590 44.254082 44.333244
44.405722 44.471492 44.530258 44.581998 44.626480 44.663685 44.693447 44.715753
44.730502 44.737686 44.737272 44.729258 44.713680 44.690541 44.659942 44.621895
44.576567 44.523975 44.464349 44.397712 44.324357 44.244309 44.157921 44.065221
43.966618 43.862140 43.752249 43.636971 43.516814 43.391804 43.262491 43.128894
42.991601 42.850623 42.706579 42.559472 42.409945 42.257989 42.104267 41.948755
41.792129 41.634348 41.476097 41.317316 41.158691 41.000141 40.842350 40.685214
40.529408 40.374807 40.222070 40.071049 39.922384 39.775905 39.632230 39.491164
39.353297 39.218416 39.087079 38.959050 38.834856 38.714240 38.597696 38.484947
38.376450 38.271911 38.171749 38.075655 37.984009 37.896489 37.813434 37.734513
37.660023 37.589625 37.523576 37.461530 37.403706 37.349751 37.299846 37.253637
37.211263 37.172374 37.137071 37.105005 37.076240 37.050433 37.027612 37.007443
36.989915 36.974708 36.961776 36.950810 36.941735 36.934253 36.928258 36.923471
36.919756 36.916852 36.914595 36.912745 36.911111
37.288889 37.296369 37.304083 37.312240 37.321098 37.330836 37.341737 37.353947
37.367770 37.383321 37.400920 37.420648 37.442842 37.467546 37.495110 37.525542
37.559201 37.596056 37.636477 37.680390 37.728170 37.779704 37.835370 37.895011
37.959005 38.027152 38.099830 38.176793 38.258414 38.344403 38.435126 38.530249
38.630125 38.734379 38.843349 38.956619 39.074510 39.196563 39.323083 39.453568
39.588305 39.726752 39.869174 40.014993 40.164450 40.316932 40.472658 40.630982
40.792098 40.955333 41.120854 41.287967 41.456812 41.626677 41.797677 41.969084
42.140992 42.312663 42.484169 42.654771 42.824518 42.992674 43.159271 43.323584
43.485626 43.644689 43.800773 43.953195 44.101940 44.246356 44.386420 44.521516
44.651614 44.776141 44.895063 45.007856 45.114483 45.214473 45.307791 45.394024
45.473139 45.544785 45.608932 45.665296 45.713852 45.754385 45.786875 45.811178
45.827282 45.835113 45.834667 45.825945 45.808948 45.783749 45.750359 45.708922
45.659455 45.602174 45.537102 45.464522 45.384465 45.297278 45.202996 45.102030
44.994414 44.880621 44.760684 44.635129 44.503988 44.367837 44.226702 44.081202
43.931358 43.777825 43.620615 43.460413 43.297220 43.131746 42.963975 42.794636
42.623698 42.451898 42.279187 42.106307 41.933188 41.760569 41.588358 41.417288
41.247241 41.078936 40.912233 40.747831 40.585564 40.426110 40.269277 40.115714
39.965206 39.818373 39.674972 39.535590 39.399964 39.268641 39.141337 39.018562
38.900011 38.786154 38.676668 38.571980 38.471754 38.376372 38.285485 38.199434
38.117856 38.041051 37.968646 37.900898 37.837430 37.778453 37.723589 37.673006
37.626325 37.583673 37.544673 37.509411 37.477514 37.449029 37.423590 37.401206
37.381520 37.364504 37.349814 37.337384 37.326887 37.318221 37.311077 37.305321
37.300661 37.296932 37.293866 37.291267 37.288889
37.666667 37.675426 37.684424 37.693927 37.704145 37.715370 37.727778 37.741684
37.757232 37.774757 37.794367 37.816415 37.840971 37.868403 37.898743 37.932371
37.969278 38.009856 38.054050 38.102261 38.154392 38.210846 38.271482 38.336705
38.406327 38.480752 38.559746 38.643709 38.732359 38.826088 38.924568 39.028181
39.136551 39.250048 39.368248 39.491505 39.619350 39.752118 39.889296 40.031199
40.177268 40.327796 40.482185 40.640703 40.802711 40.968453 41.137253 41.309329
41.483974 41.661377 41.840803 42.022413 42.205450 42.390047 42.575428 42.761700
42.948075 43.134636 43.320587 43.505986 43.690040 43.872784 44.053433 44.232003
44.407722 44.580589 44.749856 44.915507 45.076822 45.233774 45.385680 45.532505
45.673606 45.808946 45.937930 46.060516 46.176167 46.284840 46.386057 46.479779
46.565592 46.643460 46.713041 46.774301 46.826971 46.871027 46.906272 46.932690
46.950163 46.958681 46.958204 46.948732 46.930304 46.902927 46.866719 46.821695
46.768051 46.705809 46.635239 46.556372 46.469549 46.374807 46.272557 46.162840
46.046131 45.922473 45.792403 45.655963 45.513746 45.365791 45.212739 45.054625
44.892134 44.725292 44.554821 44.380734 44.203783 44.023968 43.842063 43.658052
43.472723 43.286040 43.098800 42.910945 42.723273 42.535703 42.349026 42.163137
41.978816 41.795929 41.615239 41.436587 41.260712 41.087426 40.917441 40.750544
40.587414 40.427810 40.272378 40.120850 39.973832 39.831035 39.693023 39.559484
39.430939 39.307055 39.188311 39.074354 38.965617 38.861732 38.763085 38.669295
38.580703 38.496915 38.418226 38.344236 38.275192 38.210689 38.150928 38.095502
38.044567 37.997718 37.955065 37.916207 37.881210 37.849681 37.821643 37.796711
37.774870 37.755745 37.739282 37.725121 37.713169 37.703082 37.694735 37.687801
37.682120 37.677388 37.673412 37.669913 37.666667
38.044444 38.054622 38.065072 38.076035 38.087811 38.100608 38.114753 38.130418
38.147953 38.167493 38.189409 38.213796 38.241043 38.271206 38.304686 38.341496
38.382052 38.426322 38.474729 38.527195 38.584152 38.645473 38.711592 38.782336
38.858137 38.938773 39.024672 39.115564 39.211869 39.313266 39.420168 39.532200
39.649764 39.772436 39.900600 40.033782 40.172350 40.315779 40.464416 40.617690
40.775923 40.938498 41.105712 41.276906 41.452349 41.631340 41.814121 41.999953
42.189050 42.380640 42.574904 42.771046 42.969216 43.168593 43.369300 43.570500
43.772285 43.973808 44.175136 44.375418 44.574695 44.772122 44.967716 45.160644
45.350905 45.537683 45.720961 45.899950 46.074621 46.244219 46.408703 46.567363
46.720150 46.866403 47.006070 47.138544 47.263775 47.381216 47.490818 47.592103