# vtk DataFile Version 3.0
Steady-state temperature (Jacobi)
ASCII
DATASET STRUCTURED_POINTS
DIMENSIONS 181 181 1
ORIGIN 0.0 0.0 0.0
SPACING 0.05 0.05 1.0
POINT_DATA 32761
SCALARS Temperature float 1
LOOKUP_TABLE default
32.000000 32.000000 32.000000 32.000000 32.000000 32.000000 32.000000 32.000000
32.000000 32.000000 32.000000 32.000000 32.000000 32.000000 32.000000 32.000000
32.000000 32.000000 32.000000 32.000000 32.000000 32.000000 32.000000 32.000000
32.000000 32.000000 32.000000 32.000000 32.000000 32.000000 32.000000 32.000000
32.000000 32.000000 32.000000 32.000000 32.000000 32.000000 32.000000 32.000000
32.000000 32.000000 32.000000 32.000000 32.000000 32.000000 32.000000 32.000000
32.000000 32.000000 32.000000 32.000000 32.000000 32.000000 32.000000 32.000000
32.000000 32.000000 32.000000 32.000000 32.000000 32.000000 32.000000 32.000000
32.000000 32.000000 32.000000 32.000000 32.000000 32.000000 32.000000 32.000000
32.000000 32.000000 32.000000 32.000000 32.000000 32.000000 32.000000 32.000000
32.000000 32.000000 32.000000 32.000000 32.000000 32.000000 32.000000 32.000000
32.000000 32.000000 32.000000 32.000000 32.000000 32.000000 32.000000 32.000000
32.000000 32.000000 32.000000 32.000000 32.000000 32.000000 32.000000 32.000000
32.000000 32.000000 32.000000 32.000000 32.000000 32.000000 32.000000 32.000000
32.000000 32.000000 32.000000 32.000000 32.000000 32.000000 32.000000 32.000000
32.000000 32.000000 32.000000 32.000000 32.000000 32.000000 32.000000 32.000000
32.000000 32.000000 32.000000 32.000000 32.000000 32.000000 32.000000 32.000000
32.000000 32.000000 32.000000 32.000000 32.000000 32.000000 32.000000 32.000000
32.000000 32.000000 32.000000 32.000000 32.000000 32.000000 32.000000 32.000000
32.000000 32.000000 32.000000 32.000000 32.000000 32.000000 32.000000 32.000000
32.000000 32.000000 32.000000 32.000000 32.000000 32.000000 32.000000 32.000000
32.000000 32.000000 32.000000 32.000000 32.000000 32.000000 32.000000 32.000000
32.000000 32.000000 32.000000 32.000000 32.000000
32.377778 32.380513 32.383262 32.386040 32.388860 32.391737 32.394682 32.397714
32.400841 32.404081 32.407441 32.410941 32.414585 32.418394 32.422370 32.426533
32.430884 32.435444 32.440210 32.445205 32.450422 32.455884 32.461582 32.467539
32.473743 32.480217 32.486947 32.493955 32.501223 32.508773 32.516585 32.524681
32.533037 32.541673 32.550565 32.559731 32.569144 32.578820 32.588730 32.598890
32.609268 32.619877 32.630685 32.641702 32.652894 32.664271 32.675795 32.687475
32.699272 32.711194 32.723199 32.735294 32.747436 32.759630 32.771832 32.784047
32.796229 32.808382 32.820460 32.832465 32.844353 32.856123 32.867731 32.879177
32.890416 32.901449 32.912232 32.922764 32.933003 32.942947 32.952559 32.961834
32.970736 32.979263 32.987382 32.995088 33.002351 33.009169 33.015514 33.021384
33.026756 33.031626 33.035975 33.039802 33.043090 33.045839 33.048036 33.049682
33.050769 33.051296 33.051262 33.050667 33.049511 33.047798 33.045531 33.042714
33.039357 33.035461 33.031042 33.026103 33.020661 33.014721 33.008304 33.001415
32.994080 32.986302 32.978112 32.969512 32.960536 32.951188 32.941503 32.931484
32.921171 32.910565 32.899707 32.888600 32.877285 32.865765 32.854082 32.842238
32.830277 32.818198 32.806047 32.793823 32.781569 32.769284 32.757013 32.744752
32.732544 32.720385 32.708318 32.696336 32.684482 32.672746 32.661170 32.649744
32.638506 32.627446 32.616601 32.605957 32.595550 32.585365 32.575435 32.565744
32.556323 32.547154 32.538265 32.529639 32.521300 32.513228 32.505448 32.497938
32.490718 32.483767 32.477104 32.470705 32.464585 32.458723 32.453130 32.447784
32.442695 32.437838 32.433222 32.428824 32.424648 32.420670 32.416895 32.413298
32.409880 32.406619 32.403511 32.400538 32.397692 32.394954 32.392318 32.389763
32.387282 32.384855 32.382473 32.380118 32.377778
32.755556 32.761036 32.766545 32.772110 32.777762 32.783524 32.789430 32.795499
32.801769 32.808254 32.814992 32.821996 32.829305 32.836925 32.844898 32.853226
32.861953 32.871074 32.880633 32.890622 32.901085 32.912008 32.923435 32.935348
32.947790 32.960737 32.974232 32.988245 33.002819 33.017918 33.033582 33.049772
33.066526 33.083797 33.101625 33.119956 33.138826 33.158178 33.178046 33.198366
33.219170 33.240390 33.262054 33.284091 33.306525 33.329281 33.352381 33.375745
33.399392 33.423240 33.447303 33.471497 33.495834 33.520228 33.544686 33.569121
33.593539 33.617851 33.642060 33.666078 33.689904 33.713451 33.736718 33.759617
33.782145 33.804218 33.825831 33.846901 33.867424 33.887320 33.906584 33.925142
33.942985 33.960046 33.976317 33.991735 34.006293 34.019935 34.032653 34.044398
34.055164 34.064908 34.073625 34.081282 34.087873 34.093372 34.097777 34.101070
34.103248 34.104304 34.104236 34.103044 34.100729 34.097299 34.092758 34.087121
34.080392 34.072597 34.063741 34.053857 34.042952 34.031066 34.018206 34.004422
33.989721 33.974159 33.957743 33.940537 33.922547 33.903843 33.884432 33.864387
33.843716 33.822496 33.800734 33.778512 33.755834 33.732786 33.709371 33.685675
33.661701 33.637537 33.613183 33.588727 33.564167 33.539592 33.514995 33.490467
33.465998 33.441676 33.417488 33.393521 33.369758 33.346284 33.323080 33.300226
33.277700 33.255579 33.233838 33.212550 33.191687 33.171317 33.151409 33.132028
33.113140 33.094804 33.076983 33.059731 33.043011 33.026871 33.011270 32.996252
32.981774 32.967875 32.954512 32.941716 32.929443 32.917721 32.906504 32.895814
32.885605 32.875893 32.866634 32.857838 32.849459 32.841505 32.833930 32.826736
32.819878 32.813353 32.807120 32.801169 32.795460 32.789981 32.784692 32.779578
32.774601 32.769741 32.764964 32.760246 32.755556
33.133333 33.141580 33.149868 33.158244 33.166744 33.175418 33.184297 33.193436
33.202858 33.212623 33.222748 33.233294 33.244273 33.255748 33.267723 33.280263
33.293367 33.307100 33.321453 33.336492 33.352200 33.368644 33.385799 33.403732
33.422410 33.441898 33.462155 33.483247 33.505123 33.527847 33.551361 33.575726
33.600874 33.626867 33.653627 33.681212 33.709539 33.738660 33.768484 33.799060
33.830290 33.862219 33.894742 33.927900 33.961580 33.995819 34.030500 34.065653
34.101156 34.137036 34.173166 34.209567 34.246109 34.282809 34.319535 34.356298
34.392964 34.429541 34.465894 34.502028 34.537808 34.573234 34.608174 34.642625
34.676457 34.709665 34.742123 34.773823 34.804645 34.834579 34.863510 34.891429
34.918227 34.943895 34.968333 34.991529 35.013394 35.033917 35.053019 35.070689
35.086858 35.101518 35.114612 35.126131 35.136030 35.144304 35.150920 35.155874
35.159146 35.160735 35.160632 35.158840 35.155363 35.150204 35.143382 35.134902
35.124796 35.113070 35.099769 35.084899 35.068520 35.050639 35.031325 35.010588
34.988508 34.965096 34.940442 34.914556 34.887538 34.859399 34.830247 34.800090
34.769046 34.737122 34.704441 34.671009 34.636953 34.602278 34.567115 34.531466
34.495465 34.459111 34.422539 34.385746 34.348867 34.311894 34.274963 34.238060
34.201320 34.164727 34.128411 34.092351 34.056675 34.021357 33.986520 33.952133
33.918316 33.885032 33.852394 33.820363 33.789044 33.758393 33.728509 33.699345
33.670993 33.643399 33.616649 33.590687 33.565590 33.541298 33.517881 33.495277
33.473546 33.452625 33.432566 33.413304 33.394883 33.377235 33.360397 33.344301
33.328976 33.314352 33.300451 33.287204 33.274624 33.262644 33.251269 33.240432
33.230132 33.220303 33.210938 33.201974 33.193395 33.185141 33.177190 33.169487
33.162002 33.154683 33.147496 33.140393 33.133333
33.511111 33.522154 33.533255 33.544467 33.555854 33.567461 33.579358 33.591582
33.604209 33.617266 33.630834 33.644932 33.659643 33.674978 33.691023 33.707779
33.725335 33.743681 33.762908 33.782996 33.804037 33.826000 33.848976 33.872925
33.897938 33.923963 33.951089 33.979255 34.008546 34.038891 34.070372 34.102907
34.136576 34.171285 34.207109 34.243945 34.281864 34.320751 34.360674 34.401505
34.443309 34.485949 34.529481 34.573763 34.618844 34.664572 34.710990 34.757940
34.805460 34.853382 34.901740 34.950360 34.999269 35.048291 35.097445 35.146553
35.195627 35.244489 35.293145 35.341416 35.389304 35.436631 35.483395 35.529421
35.574703 35.619069 35.662512 35.704864 35.746117 35.786111 35.824834 35.862137
35.898005 35.932300 35.965008 35.996002 36.025267 36.052690 36.078256 36.101867
36.123509 36.143098 36.160622 36.176014 36.189264 36.200320 36.209176 36.215796
36.220176 36.222299 36.222162 36.219767 36.215114 36.208221 36.199092 36.187761
36.174236 36.158567 36.140765 36.120898 36.098976 36.075084 36.049234 36.021527
35.991976 35.960695 35.927697 35.893111 35.856951 35.819355 35.780337 35.740047
35.698497 35.655846 35.612106 35.567441 35.521860 35.475536 35.428474 35.380850
35.332667 35.284103 35.235156 35.186007 35.136648 35.087261 35.037832 34.988540
34.939368 34.890491 34.841885 34.793723 34.745973 34.698803 34.652176 34.606252
34.560989 34.516539 34.472853 34.430078 34.388156 34.347225 34.307224 34.268279
34.230325 34.193479 34.157668 34.123001 34.089400 34.056964 34.025611 33.995427
33.966330 33.938394 33.911532 33.885810 33.861138 33.837571 33.815017 33.793521
33.772990 33.753458 33.734833 33.717137 33.700280 33.684273 33.669028 33.654546
33.640739 33.627602 33.615047 33.603060 33.591559 33.580517 33.569859 33.559549
33.549516 33.539717 33.530084 33.520570 33.511111
33.888889 33.902770 33.916720 33.930817 33.945121 33.959718 33.974657 33.990030
34.005880 34.022301 34.039325 34.057054 34.075508 34.094791 34.114912 34.135979
34.157989 34.181053 34.205153 34.230403 34.256772 34.284375 34.313167 34.343263
34.374605 34.407305 34.441293 34.476678 34.513377 34.551497 34.590939 34.631807
34.673990 34.717586 34.762469 34.808734 34.856242 34.905081 34.955100 35.006379
35.058756 35.112305 35.166850 35.222459 35.278947 35.336371 35.394537 35.453495
35.513043 35.573223 35.633823 35.694879 35.756173 35.817733 35.879337 35.941005
36.002512 36.063870 36.124855 36.185473 36.245498 36.304931 36.363549 36.421348
36.478110 36.533825 36.588283 36.641470 36.693185 36.743410 36.791954 36.838800
36.883766 36.926836 36.967841 37.006764 37.043454 37.077893 37.109946 37.139598
37.166731 37.191332 37.213304 37.232634 37.249247 37.263132 37.274235 37.282550
37.288042 37.290708 37.290538 37.287531 37.281698 37.273042 37.261597 37.247369
37.230412 37.210737 37.188418 37.163469 37.135985 37.105982 37.073576 37.038781
37.001734 36.962451 36.921085 36.877652 36.832320 36.785108 36.736195 36.685600
36.633514 36.579955 36.525124 36.469035 36.411900 36.353728 36.294738 36.234935
36.174541 36.113557 36.052209 35.990491 35.928629 35.866611 35.804663 35.742767
35.681143 35.619767 35.558857 35.498377 35.438542 35.379309 35.320883 35.263214
35.206498 35.150679 35.095943 35.042225 34.989701 34.938298 34.888181 34.839270
34.791719 34.745441 34.700577 34.657033 34.614937 34.574192 34.534912 34.496994
34.460539 34.425440 34.391785 34.359464 34.328550 34.298933 34.270671 34.243652
34.217922 34.193367 34.170022 34.147772 34.126638 34.106508 34.087390 34.069174
34.051856 34.035327 34.019574 34.004491 33.990053 33.976159 33.962772 33.949799
33.937192 33.924862 33.912753 33.900784 33.888889
34.266667 34.283435 34.300291 34.317314 34.334602 34.352220 34.370277 34.388826
34.407982 34.427788 34.448363 34.469738 34.492037 34.515277 34.539588 34.564971
34.591560 34.619341 34.648450 34.678859 34.710704 34.743941 34.778706 34.814940
34.852778 34.892144 34.933171 34.975767 35.020062 35.065948 35.113550 35.162742
35.213647 35.266122 35.320282 35.375970 35.433294 35.492082 35.552432 35.614159
35.677353 35.741813 35.807622 35.874565 35.942715 36.011846 36.082021 36.153002
36.224844 36.297298 36.370410 36.443922 36.517872 36.591995 36.666319 36.740575
36.814783 36.888671 36.962249 37.035248 37.107669 37.179244 37.249968 37.319578
37.388064 37.455167 37.520874 37.584935 37.647332 37.707827 37.766399 37.822825
37.877081 37.928960 37.978437 38.025322 38.069593 38.111077 38.149753 38.185471
38.218211 38.247846 38.274358 38.297644 38.317690 38.334417 38.347815 38.357831
38.364459 38.367672 38.367468 38.363847 38.356810 38.346384 38.332576 38.315437
38.294979 38.271279 38.244351 38.214298 38.181139 38.144999 38.105899 38.063988
38.019289 37.971973 37.922062 37.869748 37.815053 37.758187 37.699173 37.638234
37.575392 37.510885 37.444731 37.377180 37.308247 37.238189 37.167018 37.094999
37.022135 36.948697 36.874683 36.800364 36.725731 36.651055 36.576319 36.501792
36.427447 36.353551 36.280067 36.207254 36.135067 36.063757 35.993269 35.923846
35.855422 35.788228 35.722190 35.657528 35.594157 35.532283 35.471815 35.412943
35.355568 35.299865 35.245728 35.193316 35.142517 35.093474 35.046067 35.000425
34.956423 34.914174 34.873546 34.834637 34.797314 34.761656 34.727529 34.694995
34.663919 34.634348 34.606146 34.579345 34.553809 34.529555 34.506449 34.484494
34.463558 34.443629 34.424581 34.406387 34.388926 34.372158 34.355967 34.340302
34.325054 34.310159 34.295515 34.281049 34.266667
34.644444 34.664163 34.683979 34.704001 34.724316 34.745041 34.766250 34.788071
34.810561 34.833858 34.858004 34.883142 34.909302 34.936629 34.965138 34.994980
35.026150 35.058805 35.092921 35.128657 35.165972 35.205023 35.245754 35.288320
35.332644 35.378882 35.426938 35.476964 35.528844 35.582726 35.638476 35.696237
35.755854 35.817463 35.880893 35.946271 36.013406 36.082418 36.153099 36.225560
36.299573 36.375240 36.452318 36.530898 36.610722 36.691870 36.774069 36.857389
36.941544 37.026593 37.112241 37.198533 37.285167 37.372177 37.459254 37.546422
37.633366 37.720103 37.806316 37.892010 37.976870 38.060895 38.143771 38.225491
38.305747 38.384525 38.461527 38.536734 38.609861 38.680883 38.749529 38.815775
38.879365 38.940272 38.998262 39.053308 39.105197 39.153902 39.199235 39.241170
39.279546 39.314340 39.345416 39.372756 39.396253 39.415893 39.431599 39.443360
39.451130 39.454904 39.454666 39.450416 39.442169 39.429931 39.413747 39.393627
39.369649 39.341826 39.310265 39.274984 39.236119 39.193692 39.147865 39.098662
39.046274 38.990725 38.932230 38.870814 38.806713 38.739955 38.670793 38.599253
38.525608 38.449880 38.372356 38.293056 38.212277 38.130036 38.046639 37.962096
37.876720 37.790513 37.703793 37.616553 37.529112 37.441455 37.353897 37.266416
37.179323 37.092582 37.006501 36.921033 36.836476 36.752772 36.670210 36.588721
36.508579 36.429706 36.352363 36.276459 36.202242 36.129610 36.058793 35.989682
35.922489 35.857095 35.793694 35.732159 35.672667 35.615082 35.559562 35.505964
35.454430 35.404809 35.357223 35.311519 35.267799 35.225906 35.185924 35.147693
35.111280 35.076523 35.043470 35.011961 34.982024 34.953501 34.926404 34.900577
34.876015 34.852566 34.830208 34.808795 34.788289 34.768551 34.749527 34.731084
34.713157 34.695622 34.678397 34.661369 34.644444
35.022222 35.044958 35.067813 35.090891 35.114324 35.138203 35.162668 35.187796
35.213738 35.240553 35.268401 35.297323 35.327486 35.358914 35.391779 35.426086
35.462011 35.499540 35.538851 35.579910 35.622897 35.667756 35.714668 35.763556
35.814599 35.867698 35.923029 35.980472 36.040198 36.102065 36.166239 36.232556
36.301175 36.371909 36.444911 36.519971 36.597233 36.676467 36.757806 36.841001
36.926172 37.013051 37.101748 37.191975 37.283830 37.377010 37.471599 37.567278
37.664118 37.761789 37.860347 37.959451 38.059146 38.159080 38.259287 38.359408
38.459466 38.559097 38.658314 38.756754 38.854417 38.950944 39.046326 39.140209
39.232577 39.323086 39.411711 39.498120 39.582286 39.663890 39.742902 39.819020
39.892212 39.962199 40.028947 40.092200 40.151925 40.207893 40.260073 40.308264
40.352436 40.392420 40.428191 40.459611 40.486658 40.509229 40.527308 40.540825
40.549771 40.554109 40.553838 40.548955 40.539466 40.525404 40.506778 40.483660
40.456062 40.424092 40.387767 40.347227 40.302495 40.253743 40.200999 40.144463
40.084166 40.020339 39.953014 39.882447 39.808671 39.731967 39.652366 39.570171
39.485412 39.398408 39.309187 39.218082 39.125117 39.030638 38.934662 38.837543
38.739290 38.640265 38.540468 38.440262 38.339637 38.238957 38.138202 38.037730
37.937509 37.837895 37.738840 37.640692 37.543393 37.447277 37.352273 37.258704
37.166485 37.075925 36.986925 36.899778 36.814374 36.730985 36.649492 36.570147
36.492819 36.417743 36.344775 36.274129 36.205653 36.139539 36.075629 36.014092
35.954761 35.897785 35.842992 35.790508 35.740157 35.692043 35.645987 35.602073
35.560117 35.520184 35.482089 35.445876 35.411363 35.378572 35.347323 35.317619
35.289284 35.262301 35.236501 35.211848 35.188178 35.165439 35.143475 35.122218
35.101519 35.081294 35.061407 35.041758 35.022222
35.400000 35.425837 35.451800 35.478031 35.504640 35.531782 35.559551 35.588112
35.617542 35.648016 35.679592 35.712454 35.746640 35.782340 35.819571 35.858531
35.899215 35.941822 35.986326 36.032930 36.081582 36.132488 36.185572 36.241038
36.298786 36.359018 36.421610 36.486759 36.554317 36.624474 36.697059 36.772254
36.849862 36.930060 37.012624 37.097720 37.185102 37.274926 37.366921 37.461230
37.557562 37.656046 37.756370 37.858648 37.962550 38.068175 38.175174 38.283633
38.393185 38.503904 38.615407 38.727753 38.840549 38.953839 39.067221 39.180726
39.293947 39.406900 39.519177 39.630782 39.741308 39.850747 39.958697 40.065143
40.169688 40.272309 40.372623 40.470599 40.565869 40.658399 40.747838 40.834149
40.917004 40.996363 41.071926 41.143651 41.211266 41.274731 41.333805 41.388451
41.438461 41.483802 41.524301 41.559931 41.590554 41.616151 41.636621 41.651951
41.662081 41.667003 41.666697 41.661164 41.650423 41.634480 41.613396 41.587184
41.555943 41.519693 41.478572 41.432606 41.381968 41.326690 41.266981 41.202877
41.134621 41.062250 40.986039 40.906026 40.822516 40.735545 40.645444 40.552250
40.456313 40.357668 40.256684 40.153392 40.048177 39.941061 39.832443 39.722337
39.611149 39.498886 39.385956 39.272357 39.158499 39.044366 38.930366 38.816472
38.703086 38.590165 38.478106 38.366850 38.256783 38.147832 38.040368 37.934304
37.829996 37.727343 37.626681 37.527896 37.431304 37.336776 37.244610 37.154663
37.067210 36.982096 36.899573 36.819476 36.742033 36.667067 36.594784 36.524998
36.457890 36.393268 36.331286 36.271748 36.214783 36.160191 36.108077 36.058236
36.010751 35.965416 35.922289 35.881165 35.842079 35.804827 35.769423 35.735666
35.703547 35.672872 35.643610 35.615574 35.588712 35.562846 35.537904 35.513717
35.490198 35.467185 35.444575 35.422220 35.400000
35.777778 35.806801 35.835973 35.865428 35.895329 35.925793 35.956997 35.989037
36.022103 36.056271 36.091741 36.128568 36.166959 36.206946 36.248747 36.292367
36.338029 36.385715 36.435651 36.487794 36.542370 36.599312 36.658845 36.720874
36.785625 36.852974 36.923142 36.995981 37.071704 37.150135 37.231483 37.315541
37.402510 37.492157 37.584671 37.679793 37.777701 37.878108 37.981180 38.086604
38.194532 38.304628 38.417026 38.531369 38.647775 38.765866 38.885745 39.007011
39.129753 39.253554 39.378484 39.504114 39.630496 39.757191 39.884235 40.011179
40.138046 40.264382 40.390196 40.515032 40.638888 40.761310 40.882284 41.001365
41.118527 41.233336 41.345759 41.455377 41.562150 41.665679 41.765920 41.862495
41.955359 42.044159 42.128851 42.209111 42.284896 42.355916 42.422128 42.483281
42.539335 42.590076 42.635471 42.675344 42.709671 42.738317 42.761264 42.778421
42.789778 42.795289 42.794950 42.788761 42.776725 42.758887 42.735259 42.705929
42.670918 42.630356 42.584270 42.532836 42.476084 42.414230 42.347313 42.275584
42.199087 42.118110 42.032698 41.943173 41.849581 41.752274 41.651298 41.547031
41.439517 41.329156 41.215989 41.100435 40.982529 40.862704 40.740988 40.617826
40.493234 40.367667 40.241128 40.114076 39.986500 39.858859 39.731130 39.603765
39.476727 39.350460 39.224912 39.100516 38.977202 38.855391 38.734996 38.616420
38.499562 38.384805 38.272032 38.161604 38.053388 37.947724 37.844463 37.743922
37.645936 37.550798 37.458330 37.368799 37.282015 37.198216 37.117205 37.039193
36.963971 36.891723 36.822235 36.755664 36.691787 36.630735 36.572283 36.516532
36.463257 36.412532 36.364130 36.318102 36.274219 36.232507 36.192743 36.154926
36.118837 36.084454 36.051562 36.020116 35.989911 35.960880 35.932826 35.905662
35.879203 35.853341 35.827906 35.802771 35.777778
36.155556 36.187866 36.220334 36.253131 36.286396 36.320318 36.355014 36.390688
36.427435 36.465470 36.504866 36.545849 36.588468 36.632956 36.679336 36.727850
36.778494 36.831513 36.886877 36.944834 37.005324 37.068598 37.134566 37.203476
37.275212 37.350016 37.427742 37.508629 37.592499 37.679584 37.769676 37.862998
37.959311 38.058828 38.161280 38.266868 38.375293 38.486742 38.600887 38.717901
38.837428 38.959625 39.084109 39.211020 39.339951 39.471022 39.603807 39.738407
39.874373 40.011790 40.150191 40.289642 40.429663 40.570301 40.711066 40.851987
40.992567 41.132819 41.272243 41.410837 41.548100 41.684020 41.818099 41.950313
42.080176 42.207652 42.332269 42.453985 42.572347 42.687306 42.798431 42.905671
43.008622 43.107231 43.201126 43.290254 43.374276 43.453144 43.526556 43.594467
43.656618 43.712968 43.763301 43.807584 43.845646 43.877460 43.902906 43.921963
43.934558 43.940682 43.940309 43.933440 43.920099 43.900294 43.874101 43.841535
43.802720 43.757681 43.706589 43.649477 43.586560 43.517878 43.443691 43.364045
43.279239 43.189323 43.094637 42.995231 42.891479 42.783435 42.671502 42.555732
42.436556 42.314023 42.188588 42.060293 41.929612 41.796580 41.661684 41.524952
41.386880 41.247482 41.107262 40.966222 40.824864 40.683176 40.541659 40.400283
40.259542 40.119391 39.980311 39.842240 39.705647 39.570448 39.437098 39.305493
39.176068 39.048703 38.923808 38.801247 38.681406 38.564129 38.449780 38.338184
38.229678 38.124074 38.021679 37.922290 37.826185 37.733151 37.643435 37.556813
37.473501 37.393267 37.316297 37.242350 37.171584 37.103753 37.038982 36.977023
36.917974 36.861582 36.807916 36.756725 36.708051 36.661643 36.617515 36.575422
36.535351 36.497062 36.460517 36.425486 36.391903 36.359549 36.328337 36.298056
36.268598 36.239766 36.211431 36.183410 36.155556
36.533333 36.569035 36.604917 36.641143 36.677910 36.715360 36.753707 36.793068
36.833674 36.875618 36.919140 36.964309 37.011376 37.060381 37.111585 37.165000
37.220892 37.279243 37.340324 37.404087 37.470804 37.540396 37.613134 37.688908
37.767987 37.850227 37.935892 38.024807 38.117228 38.212946 38.312210 38.414776
38.520883 38.630255 38.743116 38.859157 38.978591 39.101075 39.226805 39.355410
39.487066 39.621372 39.758487 39.897983 40.039997 40.184077 40.330340 40.478308
40.628080 40.779157 40.931618 41.084944 41.239196 41.393842 41.548920 41.703890
41.858773 42.013021 42.166637 42.319073 42.470317 42.619823 42.767566 42.913007
43.056109 43.196348 43.333676 43.467587 43.598025 43.724508 43.846976 43.964972
44.078435 44.186939 44.290423 44.388498 44.481104 44.567891 44.648804 44.723537
44.792039 44.854051 44.909530 44.958263 45.000217 45.035231 45.063280 45.084255
45.098141 45.104884 45.104478 45.096924 45.082224 45.060435 45.031571 44.995739
44.952964 44.903407 44.847101 44.784258 44.714921 44.639348 44.557591 44.469955
44.376495 44.277562 44.173215 44.063843 43.949507 43.830634 43.707285 43.579918
43.448592 43.313792 43.175572 43.034441 42.890446 42.744113 42.595481 42.445088
42.292963 42.139651 41.985166 41.830059 41.674329 41.518523 41.362624 41.207175
41.052139 40.898050 40.744850 40.593061 40.442605 40.293986 40.147106 40.002448
39.859895 39.719907 39.582345 39.447644 39.315647 39.186760 39.060808 38.938169
38.818648 38.702594 38.589796 38.480571 38.374693 38.272448 38.173596 38.078390
37.986581 37.898387 37.813549 37.732255 37.654238 37.579651 37.508223 37.440077
37.374937 37.312893 37.253671 37.197329 37.143592 37.092489 37.043750 36.997374
36.953094 36.910883 36.870482 36.831834 36.794692 36.758972 36.724438 36.690983
36.658384 36.626509 36.595150 36.564155 36.533333
36.911111 36.950323 36.989722 37.029515 37.069868 37.111005 37.153070 37.196302
37.240818 37.286875 37.334560 37.384142 37.435681 37.489456 37.545497 37.604089
37.665231 37.729215 37.796007 37.865902 37.938832 38.015093 38.094584 38.177598
38.263999 38.354076 38.447658 38.545027 38.645976 38.750779 38.859192 38.971480
39.087361 39.207087 39.330341 39.457360 39.587793 39.721858 39.859171 39.999931
40.143721 40.290722 40.440483 40.593165 40.748288 40.905991 41.065767 41.227732
41.391356 41.556731 41.723307 41.891153 42.059702 42.229001 42.398469 42.568134
42.737404 42.906287 43.074189 43.241099 43.406422 43.570132 43.731641 43.890909
44.047357 44.200935 44.351081 44.497735 44.640358 44.778883 44.912798 45.042032
45.166106 45.284948 45.398115 45.505536 45.606811 45.701871 45.790361 45.872220
45.947139 46.015066 46.075743 46.129126 46.175012 46.213369 46.244049 46.267028
46.282220 46.289611 46.289172 46.280902 46.264831 46.240971 46.209409 46.170167
46.123393 46.069118 46.007547 45.938721 45.862898 45.780131 45.690728 45.594749
45.492551 45.384200 45.270099 45.150317 45.025299 44.895115 44.760247 44.620764
44.477181 44.329563 44.178452 44.023908 43.866493 43.706260 43.543789 43.379118
43.212841 43.044983 42.876142 42.706329 42.536141 42.365572 42.195217 42.025048
41.855651 41.686979 41.519604 41.353458 41.189096 41.026427 40.865985 40.707657
40.551953 40.398738 40.248497 40.101070 39.956915 39.815850 39.678302 39.544071
39.413549 39.286519 39.163339 39.043774 38.928148 38.816211 38.708252 38.604007
38.503730 38.407145 38.314471 38.225422 38.140182 38.058460 37.980401 37.905712
37.834503 37.766478 37.701715 37.639915 37.581123 37.525045 37.471693 37.420776
37.372276 37.325909 37.281627 37.239154 37.198413 37.159141 37.121233 37.084439
37.048628 37.013566 36.979098 36.945005 36.911111
37.288889 37.331729 37.374783 37.418242 37.462341 37.507247 37.553212 37.600377
37.649011 37.699227 37.751307 37.805334 37.861604 37.920167 37.981327 38.045103
38.111806 38.181419 38.254260 38.330275 38.409783 38.492696 38.579332 38.669563
38.763705 38.861594 38.963538 39.069336 39.179286 39.293148 39.411212 39.533197
39.659380 39.789441 39.923641 40.061624 40.203633 40.349272 40.498767 40.651686
40.808231 40.967938 41.130986 41.296876 41.465766 41.637126 41.811089 41.987096
42.165256 42.344986 42.526371 42.708806 42.892350 43.076383 43.260941 43.445390
43.629744 43.813362 43.996238 44.177729 44.357808 44.535836 44.711771 44.884982
45.055415 45.222452 45.386027 45.545545 45.700931 45.851616 45.997521 46.138108
46.273296 46.402583 46.525890 46.642759 46.753111 46.856535 46.952959 47.042022
47.123660 47.197567 47.263687 47.321772 47.371777 47.413514 47.446950 47.471957
47.488516 47.496563 47.496091 47.487099 47.469595 47.443640 47.409256 47.366568
47.315608 47.256564 47.189482 47.114608 47.031998 46.941957 46.844551 46.740139
46.628793 46.510926 46.386613 46.256315 46.120111 45.978503 45.831572 45.679857
45.523437 45.362883 45.198268 45.030192 44.858719 44.684469 44.507498 44.328437
44.147331 43.964821 43.780934 43.596315 43.410973 43.225552 43.040039 42.855071
42.670614 42.487293 42.305048 42.124490 41.945536 41.768773 41.594094 41.422064
41.252551 41.086090 40.922527 40.762366 40.605428 40.452187 40.302441 40.156628
40.014526 39.876538 39.742420 39.612540 39.486636 39.365036 39.247466 39.134214
39.024991 38.920049 38.819087 38.722318 38.629432 38.540604 38.455518 38.374313
38.296667 38.222680 38.152033 38.084789 38.020628 37.959579 37.901325 37.845862
37.792878 37.742336 37.693935 37.647603 37.603051 37.560179 37.518708 37.478510
37.439323 37.400991 37.363269 37.325977 37.288889
37.666667 37.713271 37.760095 37.807380 37.855319 37.904176 37.954116 38.005423
38.058231 38.112841 38.169357 38.228090 38.289116 38.352755 38.419047 38.488324
38.560589 38.636178 38.715057 38.797568 38.883638 38.973607 39.067363 39.165246
39.267103 39.373267 39.483545 39.598263 39.717186 39.840630 39.968317 40.100550
40.237010 40.377985 40.523114 40.672665 40.826239 40.984084 41.145759 41.311491
41.480800 41.653890 41.830244 42.010041 42.192730 42.378462 42.566655 42.757434
42.950188 43.145016 43.341279 43.539052 43.737674 43.937194 44.136936 44.336922
44.536466 44.735567 44.933532 45.130339 45.325297 45.518364 45.708854 45.896710
46.081259 46.262429 46.439567 46.612592 46.780874 46.944325 47.102349 47.254853
47.401277 47.541529 47.675092 47.801875 47.921410 48.033611 48.138062 48.234686
48.323124 48.403307 48.474936 48.537955 48.592129 48.637414 48.673639 48.700775
48.718719 48.727456 48.726951 48.717203 48.698248 48.670099 48.632859 48.586556
48.531361 48.467317 48.394658 48.313440 48.223963 48.126294 48.020791 47.907533
47.786935 47.659082 47.524444 47.383110 47.235598 47.082001 46.922879 46.758324
46.588936 46.414802 46.236552 46.054268 45.868607 45.679639 45.488039 45.293867
45.097810 44.899910 44.700863 44.500691 44.300091 44.099064 43.898300 43.697780
43.498181 43.299459 43.102277 42.906564 42.712962 42.521374 42.332417 42.145968
41.962616 41.782210 41.605308 41.431732 41.262008 41.095933 40.933995 40.775967
40.622300 40.472745 40.327714 40.186936 40.050783 39.918967 39.791819 39.669034
39.550902 39.437106 39.327892 39.222934 39.122437 39.026066 38.933985 38.845854
38.761797 38.681470 38.604959 38.531920 38.462399 38.396056 38.332901 38.272596
38.215117 38.160134 38.107586 38.057157 38.008751 37.962064 37.916971 37.873181
37.830539 37.788773 37.747700 37.707068 37.666667
38.044444 38.094946 38.145695 38.196915 38.248876 38.301772 38.355896 38.411412
38.468630 38.527683 38.588897 38.652371 38.718444 38.787178 38.858924 38.933707
39.011885 39.093444 39.178746 39.267737 39.360781 39.457784 39.559107 39.664614
39.774662 39.889071 40.008191 40.131799 40.260235 40.393228 40.531110 40.673563
40.820903 40.972769 41.129457 41.290562 41.456361 41.626404 41.800946 41.979495
42.162279 42.348768 42.539163 42.732895 42.930136 43.130283 43.333480 43.539088
43.747223 43.957218 44.169159 44.382354 44.596860 44.811965 45.027699 45.243332
45.458870 45.673575 45.887426 46.099683 46.310302 46.518547 46.724356 46.927000
47.126403 47.321854 47.513262 47.699940 47.881789 48.058152 48.228924 48.393485
48.551728 48.703076 48.847425 48.984245 49.113436 49.234525 49.347417 49.451698