# vtk DataFile Version 3.0
Steady-state temperature (Jacobi)
ASCII
DATASET STRUCTURED_POINTS
DIMENSIONS 181 181 1
ORIGIN 0.0 0.0 0.0
SPACING 0.05 0.05 1.0
POINT_DATA 32761
SCALARS Temperature float 1
LOOKUP_TABLE default
32.000000 32.000000 32.000000 32.000000 32.000000 32.000000 32.000000 32.000000
32.000000 32.000000 32.000000 32.000000 32.000000 32.000000 32.000000 32.000000
32.000000 32.000000 32.000000 32.000000 32.000000 32.000000 32.000000 32.000000
32.000000 32.000000 32.000000 32.000000 32.000000 32.000000 32.000000 32.000000
32.000000 32.000000 32.000000 32.000000 32.000000 32.000000 32.000000 32.000000
32.000000 32.000000 32.000000 32.000000 32.000000 32.000000 32.000000 32.000000
32.000000 32.000000 32.000000 32.000000 32.000000 32.000000 32.000000 32.000000
32.000000 32.000000 32.000000 32.000000 32.000000 32.000000 32.000000 32.000000
32.000000 32.000000 32.000000 32.000000 32.000000 32.000000 32.000000 32.000000
32.000000 32.000000 32.000000 32.000000 32.000000 32.000000 32.000000 32.000000
32.000000 32.000000 32.000000 32.000000 32.000000 32.000000 32.000000 32.000000
32.000000 32.000000 32.000000 32.000000 32.000000 32.000000 32.000000 32.000000
32.000000 32.000000 32.000000 32.000000 32.000000 32.000000 32.000000 32.000000
32.000000 32.000000 32.000000 32.000000 32.000000 32.000000 32.000000 32.000000
32.000000 32.000000 32.000000 32.000000 32.000000 32.000000 32.000000 32.000000
32.000000 32.000000 32.000000 32.000000 32.000000 32.000000 32.000000 32.000000
32.000000 32.000000 32.000000 32.000000 32.000000 32.000000 32.000000 32.000000
32.000000 32.000000 32.000000 32.000000 32.000000 32.000000 32.000000 32.000000
32.000000 32.000000 32.000000 32.000000 32.000000 32.000000 32.000000 32.000000
32.000000 32.000000 32.000000 32.000000 32.000000 32.000000 32.000000 32.000000
32.000000 32.000000 32.000000 32.000000 32.000000 32.000000 32.000000 32.000000
32.000000 32.000000 32.000000 32.000000 32.000000 32.000000 32.000000 32.000000
32.000000 32.000000 32.000000 32.000000 32.000000
32.377778 32.365571 32.353386 32.341244 32.329167 32.317175 32.305290 32.293531
32.281918 32.270472 32.259208 32.248147 32.237302 32.226693 32.216331 32.206234
32.196410 32.186876 32.177639 32.168712 32.160099 32.151814 32.143855 32.136238
32.128956 32.122022 32.115430 32.109190 32.103292 32.097747 32.092541 32.087686
32.083163 32.078984 32.075129 32.071610 32.068401 32.065518 32.062931 32.060656
32.058661 32.056963 32.055528 32.054373 32.053460 32.052811 32.052384 32.052201
32.052218 32.052460 32.052881 32.053506 32.054287 32.055250 32.056347 32.057604
32.058972 32.060479 32.062072 32.063782 32.065555 32.067423 32.069331 32.071311
32.073309 32.075357 32.077401 32.079473 32.081520 32.083573 32.085582 32.087576
32.089508 32.091405 32.093223 32.094987 32.096657 32.098255 32.099746 32.101150
32.102435 32.103619 32.104676 32.105619 32.106427 32.107113 32.107659 32.108074
32.108349 32.108487 32.108485 32.108343 32.108063 32.107643 32.107092 32.106401
32.105587 32.104638 32.103574 32.102383 32.101089 32.099676 32.098174 32.096564
32.094882 32.093103 32.091269 32.089355 32.087403 32.085387 32.083353 32.081274
32.079196 32.077092 32.075012 32.072925 32.070883 32.068856 32.066896 32.064972
32.063137 32.061361 32.059695 32.058111 32.056659 32.055311 32.054116 32.053048
32.052155 32.051411 32.050862 32.050484 32.050322 32.050352 32.050617 32.051096
32.051828 32.052795 32.054032 32.055523 32.057301 32.059351 32.061704 32.064345
32.067303 32.070564 32.074153 32.078059 32.082303 32.086873 32.091789 32.097038
32.102638 32.108577 32.114866 32.121496 32.128474 32.135789 32.143447 32.151434
32.159755 32.168394 32.177352 32.186613 32.196173 32.206017 32.216138 32.226518
32.237147 32.248007 32.259086 32.270364 32.281826 32.293451 32.305223 32.317120
32.329124 32.341212 32.353365 32.365560 32.377778
32.755556 32.731143 32.706774 32.682492 32.658339 32.634356 32.610588 32.587071
32.563849 32.540955 32.518432 32.496308 32.474624 32.453405 32.432688 32.412492
32.392853 32.373784 32.355318 32.337463 32.320248 32.303675 32.287772 32.272534
32.257985 32.244116 32.230949 32.218466 32.206691 32.195598 32.185210 32.175495
32.166476 32.158115 32.150435 32.143391 32.137010 32.131237 32.126102 32.121546
32.117600 32.114197 32.111374 32.109056 32.107284 32.105977 32.105179 32.104805
32.104900 32.105376 32.106281 32.107522 32.109150 32.111069 32.113332 32.115838
32.118646 32.121650 32.124910 32.128321 32.131943 32.135670 32.139562 32.143513
32.147585 32.151672 32.155834 32.159969 32.164135 32.168234 32.172321 32.176301
32.180230 32.184017 32.187713 32.191234 32.194628 32.197819 32.200850 32.203652
32.206265 32.208628 32.210775 32.212658 32.214301 32.215669 32.216779 32.217608
32.218166 32.218442 32.218437 32.218153 32.217586 32.216748 32.215628 32.214249
32.212594 32.210699 32.208539 32.206160 32.203531 32.200710 32.197658 32.194444
32.191024 32.187474 32.183746 32.179924 32.175955 32.171931 32.167795 32.163643
32.159417 32.155217 32.150982 32.146817 32.142658 32.138612 32.134616 32.130777
32.127033 32.123488 32.120084 32.116923 32.113947 32.111259 32.108801 32.106673
32.104821 32.103340 32.102179 32.101431 32.101047 32.101115 32.101590 32.102555
32.103968 32.105908 32.108335 32.111323 32.114837 32.118943 32.123610 32.128897
32.134778 32.141305 32.148453 32.156268 32.164728 32.173873 32.183680 32.194184
32.205362 32.217243 32.229804 32.243066 32.257006 32.271639 32.286941 32.302919
32.319548 32.336829 32.354734 32.373258 32.392371 32.412061 32.432295 32.453056
32.474309 32.496031 32.518184 32.540740 32.563660 32.586911 32.610452 32.634246
32.658251 32.682427 32.706731 32.731122 32.755556
33.133333 33.096718 33.060167 33.023747 32.987520 32.951551 32.915900 32.880631
32.845799 32.811466 32.777682 32.744506 32.711981 32.680164 32.649088 32.618809
32.589351 32.560765 32.533067 32.506304 32.480483 32.455648 32.431795 32.408965
32.387145 32.366373 32.346625 32.327938 32.310279 32.293683 32.278105 32.263582
32.250059 32.237573 32.226059 32.215557 32.205991 32.197404 32.189709 32.182955
32.177044 32.172028 32.167802 32.164422 32.161774 32.159919 32.158734 32.158285
32.158442 32.159275 32.160648 32.162636 32.165095 32.168105 32.171518 32.175416
32.179645 32.184294 32.189204 32.194466 32.199919 32.205656 32.211515 32.217589
32.223717 32.229992 32.236256 32.242600 32.248870 32.255155 32.261305 32.267406
32.273317 32.279119 32.284680 32.290074 32.295180 32.300067 32.304626 32.308918
32.312847 32.316466 32.319696 32.322578 32.325050 32.327144 32.328814 32.330083
32.330923 32.331344 32.331338 32.330903 32.330050 32.328767 32.327082 32.324972
32.322483 32.319582 32.316332 32.312690 32.308736 32.304416 32.299825 32.294904
32.289758 32.284321 32.278712 32.272857 32.266886 32.260719 32.254496 32.248131
32.241772 32.235330 32.228958 32.222564 32.216306 32.210090 32.204076 32.198170
32.192533 32.187071 32.181944 32.177061 32.172579 32.168409 32.164704 32.161379
32.158584 32.156236 32.154480 32.153239 32.152648 32.152639 32.153338 32.154681
32.156790 32.159603 32.163235 32.167629 32.172891 32.178970 32.185963 32.193823
32.202637 32.212364 32.223080 32.234747 32.247432 32.261099 32.275806 32.291518
32.308283 32.326066 32.344905 32.364765 32.385673 32.407595 32.430546 32.454490
32.479432 32.505334 32.532191 32.559960 32.588628 32.618148 32.648499 32.679629
32.711508 32.744081 32.777310 32.811137 32.845516 32.880386 32.915696 32.951382
32.987388 33.023649 33.060103 33.096686 33.133333
33.511111 33.462296 33.413568 33.365012 33.316717 33.268762 33.221237 33.174216
33.127784 33.082011 33.036980 32.992750 32.949400 32.906981 32.865568 32.825201
32.785948 32.747839 32.710938 32.675262 32.640869 32.607764 32.576002 32.545572
32.516528 32.488844 32.462571 32.437670 32.414191 32.392079 32.371385 32.352041
32.334097 32.317473 32.302219 32.288243 32.275599 32.264179 32.254044 32.245071
32.237327 32.230678 32.225194 32.220730 32.217363 32.214936 32.213532 32.212985
32.213384 32.214551 32.216583 32.219293 32.222785 32.226862 32.231634 32.236898
32.242768 32.249035 32.255819 32.262905 32.270417 32.278138 32.286191 32.294362
32.302774 32.311213 32.319802 32.328331 32.336921 32.345368 32.353789 32.361989
32.370079 32.377875 32.385482 32.392730 32.399714 32.406279 32.412513 32.418278
32.423651 32.428512 32.432926 32.436798 32.440177 32.442989 32.445273 32.446977
32.448125 32.448691 32.448682 32.448099 32.446933 32.445210 32.442907 32.440073
32.436671 32.432775 32.428333 32.423441 32.418035 32.412233 32.405957 32.399345
32.392309 32.385004 32.377333 32.369465 32.361296 32.353009 32.344490 32.335936
32.327227 32.318567 32.309834 32.301237 32.292652 32.284292 32.276031 32.268085
32.260328 32.252975 32.245902 32.239323 32.233115 32.227489 32.222326 32.217831
32.213890 32.210701 32.208157 32.206447 32.205470 32.205406 32.206161 32.207905
32.210553 32.214261 32.218953 32.224774 32.231653 32.239725 32.248925 32.259375
32.271017 32.283959 32.298148 32.313681 32.330508 32.348711 32.368244 32.389177
32.411463 32.435159 32.460220 32.486688 32.514517 32.543736 32.574296 32.606212
32.639434 32.673962 32.709741 32.746760 32.784960 32.824315 32.864762 32.906265
32.948753 32.992180 33.036472 33.081571 33.127398 33.173888 33.220959 33.268537
33.316537 33.364880 33.413480 33.462253 33.511111
33.888889 33.827879 33.766978 33.706294 33.645932 33.586002 33.526602 33.467841
33.409809 33.352612 33.296331 33.241066 33.186888 33.133893 33.082137 33.031711
32.982658 32.935062 32.888950 32.844403 32.801430 32.760105 32.720424 32.682454
32.646173 32.611647 32.578835 32.547800 32.518485 32.490951 32.465123 32.441064
32.418680 32.398036 32.379023 32.361707 32.345962 32.331861 32.319260 32.308238
32.298634 32.290535 32.283765 32.278418 32.274303 32.271522 32.269871 32.269459
32.270069 32.271819 32.274478 32.278175 32.282666 32.288086 32.294184 32.301102
32.308578 32.316761 32.325383 32.334597 32.344132 32.354143 32.364357 32.374931
32.385593 32.396499 32.407379 32.418390 32.429268 32.440164 32.450824 32.461395
32.471634 32.481679 32.491306 32.500641 32.509477 32.517931 32.525818 32.533240
32.540036 32.546293 32.551877 32.556859 32.561133 32.564752 32.567640 32.569834
32.571285 32.572014 32.572003 32.571253 32.569779 32.567562 32.564649 32.561003
32.556701 32.551687 32.546069 32.539774 32.532936 32.525467 32.517529 32.509016
32.500115 32.490708 32.481002 32.470867 32.460529 32.449849 32.439066 32.428036
32.417010 32.405836 32.394775 32.383671 32.372794 32.361982 32.351510 32.341216
32.331375 32.321827 32.312844 32.304271 32.296374 32.289002 32.282417 32.276472
32.271421 32.267125 32.263827 32.261397 32.260066 32.259712 32.260555 32.262481
32.265697 32.270100 32.275879 32.282942 32.291465 32.301362 32.312793 32.325682
32.340174 32.356197 32.373881 32.393160 32.414147 32.436781 32.461157 32.487217
32.515041 32.544570 32.575867 32.608874 32.643635 32.680091 32.718270 32.758109
32.799618 32.842730 32.887440 32.933674 32.981411 33.030572 33.081121 33.132971
33.186072 33.240334 33.295690 33.352045 33.409322 33.467420 33.526252 33.585712
33.645705 33.706124 33.766866 33.827823 33.888889
34.266667 34.193468 34.120400 34.047592 33.975174 33.903270 33.832010 33.761509
33.691895 33.623272 33.555763 33.489460 33.424481 33.360904 33.298839 33.238347
33.179535 33.122443 33.067170 33.013741 32.962246 32.912690 32.865158 32.819633
32.776198 32.734812 32.695556 32.658369 32.623327 32.590349 32.559513 32.530715
32.504034 32.479347 32.456734 32.436051 32.417386 32.400574 32.385708 32.372603
32.361362 32.351780 32.343967 32.337701 32.333103 32.329931 32.328316 32.328001
32.329127 32.331420 32.335031 32.339672 32.345505 32.352226 32.360008 32.368535
32.377987 32.388042 32.398882 32.410180 32.422124 32.434381 32.447144 32.460077
32.473374 32.486704 32.500256 32.513706 32.527241 32.540545 32.553799 32.566702
32.579424 32.591682 32.603637 32.615026 32.625996 32.636309 32.646097 32.655150
32.663582 32.671213 32.678140 32.684216 32.689517 32.693931 32.697513 32.700187
32.701988 32.702876 32.702863 32.701949 32.700121 32.697419 32.693807 32.689361
32.684026 32.677913 32.670944 32.663267 32.654785 32.645676 32.635826 32.625443
32.614396 32.602920 32.590869 32.578503 32.565662 32.552628 32.539228 32.525762
32.512050 32.498403 32.484635 32.471069 32.457512 32.444294 32.431221 32.418625
32.406313 32.394615 32.383342 32.372819 32.362862 32.353789 32.345423 32.338073
32.331568 32.326208 32.321830 32.318721 32.316729 32.316126 32.316769 32.318917
32.322436 32.327568 32.334193 32.342532 32.352476 32.364230 32.377692 32.393050
32.410212 32.429343 32.450360 32.473411 32.498416 32.525503 32.554597 32.585806
32.619058 32.654439 32.691877 32.731439 32.773052 32.816760 32.862489 32.910262
32.960000 33.011707 33.065298 33.120756 33.177989 33.236963 33.297579 33.359783
33.423470 33.488569 33.554968 33.622582 33.691291 33.760997 33.831576 33.902918
33.974893 34.047385 34.120263 34.193400 34.266667
34.644444 34.559065 34.473837 34.388914 34.304444 34.220581 34.137461 34.055239
33.974041 33.894016 33.815276 33.737965 33.662181 33.588058 33.515677 33.445165
33.376583 33.310050 33.245605 33.183359 33.123328 33.065618 33.010219 32.957231
32.906621 32.858484 32.812761 32.769545 32.728752 32.690474 32.654602 32.621228
32.590220 32.561672 32.535428 32.511586 32.489965 32.470674 32.453505 32.438575
32.425656 32.414873 32.405974 32.399098 32.393971 32.390743 32.389119 32.389260
32.390853 32.394073 32.398585 32.404577 32.411699 32.420147 32.429558 32.440139
32.451514 32.463895 32.476900 32.490747 32.505046 32.520021 32.535278 32.551042
32.566921 32.583141 32.599312 32.615658 32.631799 32.647952 32.663751 32.679404
32.694564 32.709427 32.723668 32.737470 32.750536 32.763029 32.774685 32.785648
32.795687 32.804927 32.813174 32.820529 32.826840 32.832183 32.836447 32.839684
32.841828 32.842903 32.842888 32.841782 32.839607 32.836337 32.832038 32.826658
32.820308 32.812909 32.804614 32.795320 32.785222 32.774193 32.762465 32.749890
32.736734 32.722832 32.708478 32.693490 32.678191 32.662385 32.646415 32.630074
32.613725 32.597151 32.580727 32.564231 32.548049 32.531953 32.516334 32.500964
32.486236 32.471922 32.458413 32.445484 32.433520 32.422304 32.412209 32.403028
32.395121 32.388291 32.382884 32.378713 32.376109 32.374897 32.375388 32.377421
32.381289 32.386843 32.394355 32.403687 32.415093 32.428447 32.443979 32.461574
32.481440 32.503472 32.527855 32.554493 32.583546 32.614924 32.648763 32.684979
32.723683 32.764791 32.808393 32.854403 32.902886 32.953755 33.007051 33.062681
33.120663 33.180899 33.243383 33.308010 33.374750 33.443491 33.514182 33.586703
33.660981 33.736888 33.814334 33.893182 33.973325 34.054620 34.136946 34.220154
34.304111 34.388665 34.473673 34.558983 34.644444
35.022222 34.924669 34.827292 34.730261 34.633753 34.537932 34.442974 34.349030
34.256274 34.164843 34.074905 33.986581 33.900030 33.815354 33.732706 33.652164
33.573871 33.497884 33.424337 33.353259 33.284777 33.218894 33.155728 33.095256
33.037588 32.982674 32.930622 32.881349 32.834963 32.791353 32.750626 32.712642
32.677512 32.645067 32.615422 32.588380 32.564064 32.542249 32.523067 32.506265
32.491987 32.479953 32.470319 32.462781 32.457507 32.454167 32.452943 32.453484
32.455985 32.460071 32.465953 32.473234 32.482139 32.492251 32.503808 32.516379
32.530208 32.544854 32.560569 32.576901 32.594110 32.611739 32.630048 32.648580
32.667597 32.686644 32.705981 32.725162 32.744440 32.763383 32.782236 32.800584
32.818661 32.836077 32.853050 32.869218 32.884782 32.899413 32.913293 32.926130
32.938082 32.948900 32.958716 32.967326 32.974836 32.981090 32.986165 32.989954
32.992505 32.993765 32.993747 32.992453 32.989866 32.986039 32.980925 32.974629
32.967073 32.958412 32.948541 32.937663 32.925644 32.912732 32.898769 32.884044
32.868377 32.852093 32.834992 32.817434 32.799198 32.780674 32.761627 32.742469
32.722953 32.703511 32.683886 32.664523 32.645159 32.626248 32.607525 32.589445
32.571746 32.554880 32.538588 32.523317 32.508814 32.495517 32.483180 32.472229
32.462428 32.454189 32.447285 32.442111 32.438455 32.436690 32.436618 32.438592
32.442428 32.448455 32.456504 32.466880 32.479429 32.494429 32.511740 32.531616
32.553927 32.578901 32.606419 32.636681 32.669577 32.705279 32.743684 32.784936
32.828936 32.875800 32.925428 32.977911 33.033148 33.091199 33.151961 33.215467
33.281608 33.350390 33.421695 33.495504 33.571691 33.650211 33.730928 33.813774
33.898603 33.985324 34.073785 34.163871 34.255422 34.348308 34.442361 34.537435
34.633357 34.729970 34.827098 34.924574 35.022222
35.400000 35.290285 35.180765 35.071641 34.963100 34.855342 34.748545 34.642906
34.538589 34.435787 34.334645 34.235349 34.138024 34.042847 33.949919 33.859410
33.771393 33.686028 33.603361 33.523542 33.446588 33.372640 33.301683 33.233852
33.169101 33.107557 33.049144 32.993985 32.941971 32.893225 32.847605 32.805235
32.765941 32.729852 32.696761 32.666804 32.639743 32.615724 32.594475 32.576155
32.560461 32.547566 32.537137 32.529361 32.523876 32.520885 32.519997 32.521432
32.524773 32.530254 32.537435 32.546564 32.557179 32.569542 32.583171 32.598340
32.614551 32.632088 32.650439 32.669898 32.689942 32.710871 32.732159 32.754107
32.776189 32.798705 32.821137 32.843779 32.866125 32.888463 32.910303 32.931922
32.952854 32.973360 32.993007 33.012034 33.030045 33.047257 33.063314 33.078410
33.092235 33.104954 33.116306 33.126428 33.135112 33.142463 33.148331 33.152785
33.155735 33.157216 33.157196 33.155676 33.152686 33.148190 33.142278 33.134879
33.126143 33.115965 33.104551 33.091764 33.077863 33.062683 33.046532 33.029215
33.011088 32.991931 32.972140 32.951474 32.930363 32.908547 32.886487 32.863908
32.841294 32.818358 32.795602 32.772730 32.750258 32.727885 32.706131 32.684694
32.664097 32.644039 32.625038 32.606799 32.589830 32.573844 32.559337 32.546031
32.534408 32.524200 32.515870 32.509164 32.504524 32.501712 32.501143 32.502597
32.506464 32.512540 32.521186 32.532216 32.545964 32.562258 32.581402 32.603240
32.628045 32.655675 32.686373 32.720006 32.756786 32.796590 32.839598 32.885691
32.935021 32.987470 33.043156 33.101965 33.163982 33.229089 33.297342 33.368617
33.442937 33.520173 33.600318 33.683233 33.768882 33.857117 33.947872 34.040991
34.136381 34.233874 34.333355 34.434645 34.537609 34.642059 34.747839 34.854758
34.962644 35.071299 35.180542 35.290172 35.400000
35.777778 35.655911 35.534264 35.413052 35.292498 35.172805 35.054196 34.936861
34.821018 34.706840 34.594537 34.484261 34.376215 34.270526 34.167385 34.066893
33.969232 33.874470 33.782779 33.694197 33.608884 33.526844 33.448231 33.373011
33.301332 33.233125 33.168533 33.107450 33.050018 32.996094 32.945820 32.899018
32.855833 32.816050 32.779821 32.746895 32.717435 32.691151 32.668221 32.648319
32.631635 32.617811 32.607053 32.598969 32.593780 32.591064 32.591060 32.593312
32.598079 32.604875 32.613978 32.624874 32.637855 32.652385 32.668771 32.686454
32.705755 32.726099 32.747814 32.770313 32.793932 32.818077 32.843087 32.868366
32.894252 32.920154 32.946408 32.972431 32.998553 33.024208 33.049713 33.074528
33.098954 33.122482 33.145394 33.167218 33.188211 33.207947 33.226658 33.243963
33.260067 33.274645 33.287866 33.299465 33.309578 33.318002 33.324834 33.329938
33.333373 33.335070 33.335048 33.333308 33.329828 33.324677 33.317796 33.309319
33.299149 33.287487 33.274197 33.259544 33.243355 33.225956 33.207141 33.187289
33.166166 33.144199 33.121127 33.097420 33.072796 33.047761 33.022013 32.996089
32.969671 32.943320 32.916707 32.890409 32.864090 32.838337 32.812810 32.788101
32.763868 32.740703 32.718266 32.697142 32.676999 32.658407 32.641046 32.625469
32.611366 32.599272 32.588892 32.580736 32.574525 32.570742 32.569128 32.570137
32.573527 32.579723 32.588500 32.600252 32.614773 32.632424 32.653016 32.676875
32.703830 32.734171 32.767740 32.804794 32.845186 32.889137 32.936508 32.987485
33.041935 33.100007 33.161569 33.226738 33.295379 33.367572 33.443182 33.522251
33.604638 33.690351 33.779240 33.871280 33.966311 34.064277 34.165005 34.268408
34.374305 34.482579 34.593037 34.705538 34.819878 34.935895 35.053376 35.172140
35.291968 35.412663 35.534004 35.655783 35.777778
36.155556 36.021551 35.887786 35.754507 35.621944 35.490343 35.359923 35.230926
35.103554 34.978043 34.854572 34.733371 34.614593 34.498458 34.385089 34.274696
34.167371 34.063311 33.962573 33.865345 33.771646 33.681654 33.595352 33.512908
33.434264 33.359585 33.288773 33.221988 33.159092 33.100244 33.045266 32.994322
32.947190 32.904042 32.864615 32.829090 32.797165 32.769032 32.744349 32.723324
32.705576 32.691329 32.680163 32.672321 32.667347 32.665503 32.666295 32.670008
32.676111 32.684910 32.695842 32.709230 32.724483 32.741941 32.760989 32.781978
32.804273 32.828238 32.853219 32.879591 32.906689 32.934891 32.963527 32.992978
33.022575 33.052696 33.082679 33.112897 33.142704 33.172461 33.201546 33.230304
33.258144 33.285392 33.311495 33.336754 33.360664 33.383498 33.404801 33.424816
33.443147 33.460003 33.475050 33.488460 33.499968 33.509705 33.517480 33.523379
33.527288 33.529250 33.529226 33.527216 33.523258 33.517307 33.509478 33.499683
33.488112 33.474633 33.459510 33.442571 33.424147 33.404029 33.382611 33.359650
33.335598 33.310180 33.283901 33.256457 33.228399 33.199399 33.170047 33.139994
33.109861 33.079282 33.048903 33.018348 32.988275 32.958302 32.929097 32.900275
32.872502 32.845398 32.819622 32.794798 32.771577 32.749589 32.729468 32.710858
32.694371 32.679666 32.667328 32.657034 32.649342 32.643947 32.641374 32.641340
32.644336 32.650099 32.659086 32.671055 32.686425 32.704973 32.727083 32.752550
32.781718 32.814400 32.850902 32.891049 32.935108 32.982916 33.034701 33.090307
33.149922 33.213395 33.280875 33.352212 33.427514 33.506630 33.589628 33.676352
33.766833 33.860905 33.958562 34.059629 34.164062 34.271676 34.382392 34.496014
34.612429 34.731429 34.852873 34.976540 35.102262 35.229811 35.358994 35.489575
35.621343 35.754057 35.887492 36.021403 36.155556
36.533333 36.387204 36.241340 36.096001 35.951455 35.807949 35.665752 35.525092
35.386233 35.249383 35.114799 34.982663 34.853221 34.726625 34.603112 34.482799
34.365910 34.252528 34.142864 34.036961 33.935020 33.837043 33.743221 33.653514
33.568105 33.486910 33.410109 33.337572 33.269478 33.205653 33.146277 33.091130
33.040399 32.993820 32.951588 32.913392 32.879442 32.849382 32.823438 32.801208
32.782936 32.768178 32.757198 32.749508 32.745394 32.744326 32.746613 32.751686
32.759874 32.770571 32.784127 32.799901 32.818264 32.838543 32.861125 32.885311
32.911504 32.938982 32.968157 32.998293 33.029810 33.061961 33.095170 33.128687
33.162936 33.197170 33.231809 33.266121 33.300513 33.334275 33.367801 33.400409
33.432475 33.463356 33.493402 33.522019 33.549527 33.575387 33.599887 33.622549
33.643625 33.662706 33.680002 33.695179 33.708405 33.719425 33.728359 33.735036
33.739528 33.741749 33.741723 33.739450 33.734904 33.728171 33.719178 33.708095
33.694800 33.679547 33.662168 33.642996 33.621819 33.599045 33.574420 33.548421
33.520757 33.491968 33.461729 33.430634 33.398331 33.365459 33.331641 33.297557
33.262808 33.228104 33.193033 33.158324 33.123556 33.089471 33.055641 33.022813
32.990560 32.959624 32.929583 32.901168 32.873965 32.848689 32.824935 32.803400
32.783692 32.766480 32.751391 32.739062 32.729142 32.722233 32.718004 32.717022
32.718978 32.724401 32.733005 32.745277 32.760954 32.780482 32.803620 32.830771
32.861714 32.896808 32.935849 32.979154 33.026533 33.078258 33.134151 33.194441
33.258956 33.327880 33.401046 33.478595 33.560359 33.646436 33.736653 33.831066
33.929497 34.031957 34.138261 34.248379 34.362113 34.479396 34.600017 34.723872
34.850738 34.980476 35.112850 35.247691 35.384751 35.523836 35.664686 35.807084
35.950766 36.095495 36.241002 36.387037 36.533333
36.911111 36.752874 36.594923 36.437548 36.281026 36.125648 35.971673 35.819393
35.669043 35.520910 35.375203 35.232199 35.092079 34.955106 34.821429 34.691298
34.564822 34.442240 34.323621 34.209190 34.098972 33.993184 33.891803 33.795037
33.702817 33.615345 33.532502 33.454490 33.381140 33.312655 33.248816 33.189830
33.135430 33.085831 33.040717 33.000314 32.964257 32.932789 32.905493 32.882633
32.863742 32.849107 32.838212 32.831365 32.828005 32.828465 32.832136 32.839376
32.849534 32.862990 32.879053 32.898125 32.919477 32.943532 32.969528 32.997905
33.027874 33.059887 33.093135 33.128079 33.163895 33.201050 33.238712 33.277350
33.316133 33.355525 33.394705 33.434130 33.472996 33.511747 33.549608 33.587002
33.623194 33.658582 33.692479 33.725255 33.756278 33.785883 33.813505 33.839440
33.863196 33.885027 33.904519 33.921880 33.936784 33.949387 33.959454 33.967090
33.972152 33.974693 33.974665 33.972067 33.966947 33.959250 33.949119 33.936447
33.921469 33.904026 33.884445 33.862515 33.838650 33.812593 33.784836 33.755079
33.723889 33.690926 33.656820 33.621200 33.584751 33.547071 33.508894 33.469794
33.430541 33.390691 33.351043 33.311137 33.271791 33.232537 33.194202 33.156314
33.119701 33.083891 33.049705 33.016677 32.985613 32.956056 32.928791 32.903375
32.880565 32.859936 32.842212 32.826989 32.814953 32.805724 32.799949 32.797269
32.798291 32.802682 32.811002 32.822945 32.839024 32.858957 32.883213 32.911530
32.944330 32.981372 33.023030 33.069081 33.119851 33.175130 33.235196 33.299851
33.369324 33.443422 33.522327 33.605849 33.694122 33.786954 33.884432 33.986359
34.092775 34.203477 34.318457 34.437503 34.560563 34.687412 34.817959 34.951963
35.089295 35.229702 35.373018 35.518977 35.667383 35.817959 35.970479 36.124660
36.280254 36.436971 36.594544 36.752684 36.911111
37.288889 37.118560 36.948544 36.779144 36.610676 36.443429 36.277720 36.113816
35.952030 35.792604 35.635843 35.481958 35.331243 35.183875 35.040136 34.900162
34.764223 34.632412 34.504986 34.381992 34.263675 34.150033 34.041301 33.937429
33.838642 33.744838 33.656239 33.572690 33.494414 33.421200 33.353275 33.290374
33.232734 33.180033 33.132521 33.089822 33.052201 33.019227 32.991186 32.967593
32.948754 32.934131 32.924056 32.917937 32.916132 32.917998 32.923918 32.933200
32.946254 32.962341 32.981894 33.004131 33.029509 33.057206 33.087699 33.120131
33.154996 33.191410 33.229878 33.269496 33.310776 33.352802 33.396090 33.439717
33.484200 33.528622 33.573490 33.617903 33.662357 33.705977 33.749239 33.791305
33.832628 33.872418 33.911098 33.947934 33.983316 34.016579 34.048070 34.077201
34.104276 34.128792 34.151002 34.170496 34.187475 34.201625 34.213092 34.221665
34.227431 34.230285 34.230255 34.227340 34.221511 34.212873 34.201336 34.187112
34.170053 34.150472 34.128165 34.103543 34.076350 34.047088 34.015451 33.982026
33.946463 33.909424 33.870520 33.830481 33.788880 33.746507 33.702904 33.658908
33.614039 33.569167 33.523795 33.478821 33.433731 33.389440 33.345428 33.302613
33.260473 33.219923 33.180444 33.142938 33.106893 33.073190 33.041331 33.012168
32.985221 32.961306 32.939964 32.921974 32.906899 32.895474 32.887288 32.883032
32.882320 32.885794 32.893096 32.904818 32.920630 32.941072 32.965839 32.995419
33.029531 33.068612 33.112402 33.161282 33.215013 33.273922 33.337784 33.406873
33.480974 33.560309 33.644667 33.734218 33.828753 33.928391 34.032919 34.142404
34.256627 34.375607 34.499114 34.627118 34.759380 34.895821 35.036190 35.180364
35.328077 35.479169 35.633358 35.790446 35.950142 36.112215 36.276362 36.442327
36.609799 36.778499 36.948114 37.118348 37.288889
37.666667 37.484268 37.302201 37.120805 36.940398 36.761323 36.583878 36.408404
36.235175 36.064524 35.896695 35.732012 35.570685 35.413024 35.259198 35.109507
34.964074 34.823185 34.686914 34.555537 34.429076 34.307794 34.191661 34.080932
33.975520 33.875676 33.781256 33.692509 33.609232 33.531679 33.459587 33.393216
33.332247 33.276949 33.226942 33.182514 33.143225 33.109381 33.080482 33.056860
33.037953 33.024119 33.014738 33.010194 33.009812 33.014003 33.022035 33.034348
33.050157 33.069928 33.092827 33.119346 33.148603 33.181113 33.215953 33.253658
33.293270 33.335338 33.378878 33.424449 33.471046 33.519236 33.568003 33.617914
33.667954 33.718684 33.769100 33.819752 33.869658 33.919352 33.967886 34.015770
34.062104 34.107366 34.150715 34.192595 34.232234 34.270034 34.305302 34.338396
34.368712 34.396554 34.421418 34.443553 34.462558 34.478623 34.491458 34.501190
34.507645 34.510886 34.510853 34.507547 34.501025 34.491222 34.478314 34.462169
34.443079 34.420850 34.395883 34.367926 34.337484 34.304250 34.268825 34.230851
34.191018 34.148922 34.105332 34.059803 34.013172 33.964959 33.916060 33.865963
33.815611 33.764468 33.713512 33.662190 33.611500 33.560878 33.511335 33.462299
33.414782 33.368212 33.323590 33.280350 33.239475 33.200408 33.164104 33.130023
33.099085 33.070769 33.045954 33.024142 33.006168 32.991559 32.981100 32.974348
32.972033 32.973743 32.980152 32.990879 33.006543 33.026788 33.052179 33.082387
33.117917 33.158469 33.204487 33.255692 33.312473 33.374567 33.442306 33.515440
33.594243 33.678475 33.768352 33.863640 33.964497 34.070689 34.182318 34.299147
34.421223 34.548300 34.680373 34.817185 34.958680 35.104588 35.254804 35.409045
35.567160 35.728852 35.893929 36.062079 36.233073 36.406590 36.582367 36.760074
36.939422 37.120074 37.301722 37.484027 37.666667
38.044444 37.849994 37.655904 37.462523 37.270216 37.079316 36.890187 36.703138
36.518531 36.336644 36.157830 35.982332 35.810494 35.642516 35.478729 35.319289
35.164513 35.014506 34.869573 34.729767 34.595377 34.466402 34.343122 34.225475
34.113736 34.007783 33.907888 33.813864 33.725987 33.644008 33.568207 33.498271
33.434494 33.376494 33.324582 33.278313 33.238016 33.203180 33.174161 33.150380
33.132219 33.119036 33.111243 33.108131 33.110143 33.116510 33.127703 33.142893
33.162580 33.185879 33.213318 33.243958 33.278351 33.315511 33.356013 33.398827
33.444546 33.492105 33.542111 33.593471 33.646802 33.700994 33.756666 33.812701
33.869715 33.926598 33.983955 34.040694 34.097406 34.153030 34.208131 34.261695
34.314259 34.364865 34.414015 34.460820 34.505741 34.547972 34.587925 34.624887