# vtk DataFile Version 3.0
Steady-state temperature (Jacobi)
ASCII
DATASET STRUCTURED_POINTS
DIMENSIONS 181 181 1
ORIGIN 0.0 0.0 0.0
SPACING 0.05 0.05 1.0
POINT_DATA 32761
SCALARS Temperature float 1
LOOKUP_TABLE default
32.000000 32.000000 32.000000 32.000000 32.000000 32.000000 32.000000 32.000000
32.000000 32.000000 32.000000 32.000000 32.000000 32.000000 32.000000 32.000000
32.000000 32.000000 32.000000 32.000000 32.000000 32.000000 32.000000 32.000000
32.000000 32.000000 32.000000 32.000000 32.000000 32.000000 32.000000 32.000000
32.000000 32.000000 32.000000 32.000000 32.000000 32.000000 32.000000 32.000000
32.000000 32.000000 32.000000 32.000000 32.000000 32.000000 32.000000 32.000000
32.000000 32.000000 32.000000 32.000000 32.000000 32.000000 32.000000 32.000000
32.000000 32.000000 32.000000 32.000000 32.000000 32.000000 32.000000 32.000000
32.000000 32.000000 32.000000 32.000000 32.000000 32.000000 32.000000 32.000000
32.000000 32.000000 32.000000 32.000000 32.000000 32.000000 32.000000 32.000000
32.000000 32.000000 32.000000 32.000000 32.000000 32.000000 32.000000 32.000000
32.000000 32.000000 32.000000 32.000000 32.000000 32.000000 32.000000 32.000000
32.000000 32.000000 32.000000 32.000000 32.000000 32.000000 32.000000 32.000000
32.000000 32.000000 32.000000 32.000000 32.000000 32.000000 32.000000 32.000000
32.000000 32.000000 32.000000 32.000000 32.000000 32.000000 32.000000 32.000000
32.000000 32.000000 32.000000 32.000000 32.000000 32.000000 32.000000 32.000000
32.000000 32.000000 32.000000 32.000000 32.000000 32.000000 32.000000 32.000000
32.000000 32.000000 32.000000 32.000000 32.000000 32.000000 32.000000 32.000000
32.000000 32.000000 32.000000 32.000000 32.000000 32.000000 32.000000 32.000000
32.000000 32.000000 32.000000 32.000000 32.000000 32.000000 32.000000 32.000000
32.000000 32.000000 32.000000 32.000000 32.000000 32.000000 32.000000 32.000000
32.000000 32.000000 32.000000 32.000000 32.000000 32.000000 32.000000 32.000000
32.000000 32.000000 32.000000 32.000000 32.000000
32.377778 32.356497 32.335322 32.314358 32.293705 32.273459 32.253713 32.234548
32.216042 32.198259 32.181257 32.165082 32.149771 32.135350 32.121834 32.109230
32.097536 32.086738 32.076819 32.067752 32.059506 32.052043 32.045323 32.039301
32.033933 32.029172 32.024969 32.021278 32.018053 32.015248 32.012822 32.010734
32.008946 32.007421 32.006129 32.005039 32.004123 32.003359 32.002724 32.002198
32.001766 32.001412 32.001124 32.000891 32.000703 32.000552 32.000432 32.000336
32.000261 32.000202 32.000156 32.000120 32.000093 32.000072 32.000056 32.000044
32.000035 32.000029 32.000024 32.000021 32.000019 32.000018 32.000017 32.000018
32.000018 32.000018 32.000019 32.000020 32.000021 32.000023 32.000024 32.000025
32.000026 32.000028 32.000029 32.000030 32.000031 32.000032 32.000033 32.000034
32.000035 32.000036 32.000037 32.000038 32.000038 32.000039 32.000039 32.000039
32.000040 32.000040 32.000040 32.000040 32.000039 32.000039 32.000039 32.000038
32.000038 32.000037 32.000036 32.000035 32.000034 32.000033 32.000032 32.000031
32.000030 32.000029 32.000028 32.000026 32.000025 32.000024 32.000022 32.000021
32.000020 32.000019 32.000018 32.000017 32.000017 32.000016 32.000016 32.000017
32.000018 32.000020 32.000023 32.000028 32.000034 32.000043 32.000055 32.000071
32.000092 32.000120 32.000156 32.000202 32.000261 32.000336 32.000432 32.000552
32.000703 32.000891 32.001124 32.001412 32.001766 32.002198 32.002723 32.003359
32.004123 32.005039 32.006129 32.007421 32.008945 32.010734 32.012822 32.015248
32.018053 32.021278 32.024969 32.029172 32.033933 32.039301 32.045323 32.052043
32.059506 32.067752 32.076819 32.086738 32.097536 32.109230 32.121834 32.135350
32.149771 32.165082 32.181257 32.198259 32.216042 32.234548 32.253713 32.273459
32.293705 32.314358 32.335322 32.356497 32.377778
32.755556 32.712994 32.670645 32.628716 32.587409 32.546919 32.507426 32.469097
32.432083 32.396518 32.362514 32.330164 32.299542 32.270700 32.243668 32.218461
32.195071 32.173477 32.153638 32.135505 32.119012 32.104086 32.090645 32.078603
32.067867 32.058344 32.049938 32.042556 32.036105 32.030497 32.025645 32.021468
32.017891 32.014843 32.012258 32.010077 32.008247 32.006718 32.005447 32.004397
32.003532 32.002825 32.002249 32.001782 32.001406 32.001105 32.000864 32.000673
32.000523 32.000404 32.000312 32.000241 32.000186 32.000144 32.000112 32.000089
32.000071 32.000059 32.000050 32.000044 32.000040 32.000038 32.000037 32.000037
32.000038 32.000039 32.000041 32.000043 32.000046 32.000048 32.000051 32.000053
32.000056 32.000059 32.000061 32.000064 32.000067 32.000069 32.000071 32.000073
32.000075 32.000077 32.000079 32.000080 32.000081 32.000082 32.000083 32.000084
32.000084 32.000085 32.000085 32.000084 32.000084 32.000083 32.000082 32.000081
32.000080 32.000079 32.000077 32.000075 32.000073 32.000071 32.000069 32.000066
32.000064 32.000061 32.000059 32.000056 32.000053 32.000051 32.000048 32.000045
32.000043 32.000040 32.000038 32.000036 32.000035 32.000034 32.000034 32.000035
32.000038 32.000042 32.000048 32.000057 32.000070 32.000087 32.000111 32.000143
32.000185 32.000240 32.000311 32.000404 32.000522 32.000673 32.000863 32.001104
32.001406 32.001782 32.002249 32.002825 32.003532 32.004396 32.005447 32.006718
32.008246 32.010077 32.012258 32.014843 32.017891 32.021468 32.025645 32.030497
32.036105 32.042556 32.049938 32.058344 32.067867 32.078603 32.090645 32.104086
32.119012 32.135505 32.153638 32.173477 32.195071 32.218461 32.243668 32.270700
32.299542 32.330164 32.362514 32.396518 32.432083 32.469097 32.507426 32.546919
32.587409 32.628716 32.670645 32.712994 32.755556
33.133333 33.069492 33.005967 32.943074 32.881114 32.820378 32.761139 32.703645
32.648125 32.594777 32.543770 32.495246 32.449313 32.406049 32.365502 32.327691
32.292607 32.260215 32.230458 32.203257 32.178518 32.156129 32.135968 32.117904
32.101800 32.087515 32.074907 32.063834 32.054158 32.045745 32.038467 32.032202
32.026837 32.022264 32.018387 32.015116 32.012370 32.010077 32.008171 32.006595
32.005299 32.004238 32.003374 32.002674 32.002110 32.001657 32.001297 32.001011
32.000785 32.000608 32.000470 32.000363 32.000281 32.000218 32.000171 32.000135
32.000109 32.000091 32.000077 32.000069 32.000063 32.000061 32.000059 32.000060
32.000062 32.000064 32.000067 32.000071 32.000075 32.000080 32.000084 32.000088
32.000093 32.000097 32.000102 32.000106 32.000110 32.000114 32.000118 32.000121
32.000125 32.000128 32.000130 32.000133 32.000135 32.000137 32.000138 32.000139
32.000140 32.000140 32.000140 32.000140 32.000139 32.000138 32.000137 32.000135
32.000133 32.000130 32.000128 32.000125 32.000121 32.000118 32.000114 32.000110
32.000106 32.000102 32.000097 32.000093 32.000088 32.000084 32.000079 32.000075
32.000071 32.000066 32.000063 32.000060 32.000058 32.000056 32.000056 32.000057
32.000060 32.000065 32.000074 32.000088 32.000107 32.000133 32.000168 32.000216
32.000279 32.000361 32.000468 32.000606 32.000784 32.001009 32.001296 32.001657
32.002109 32.002673 32.003373 32.004237 32.005298 32.006595 32.008171 32.010076
32.012370 32.015116 32.018387 32.022264 32.026837 32.032202 32.038467 32.045745
32.054158 32.063834 32.074907 32.087515 32.101800 32.117904 32.135968 32.156129
32.178518 32.203257 32.230458 32.260215 32.292607 32.327691 32.365502 32.406049
32.449313 32.495246 32.543770 32.594777 32.648125 32.703645 32.761139 32.820378
32.881114 32.943074 33.005967 33.069492 33.133333
33.511111 33.425989 33.341290 33.257432 33.174819 33.093838 33.014851 32.938194
32.864167 32.793036 32.725027 32.660328 32.599084 32.541399 32.487337 32.436922
32.390143 32.346953 32.307277 32.271010 32.238023 32.208171 32.181290 32.157206
32.135734 32.116687 32.099876 32.085112 32.072211 32.060994 32.051290 32.042936
32.035782 32.029685 32.024516 32.020155 32.016494 32.013436 32.010895 32.008794
32.007066 32.005651 32.004499 32.003566 32.002814 32.002211 32.001730 32.001349
32.001048 32.000812 32.000629 32.000486 32.000377 32.000294 32.000231 32.000185
32.000151 32.000126 32.000110 32.000098 32.000092 32.000089 32.000088 32.000090
32.000093 32.000097 32.000102 32.000108 32.000114 32.000121 32.000128 32.000134
32.000141 32.000148 32.000155 32.000161 32.000168 32.000174 32.000179 32.000185
32.000190 32.000194 32.000198 32.000202 32.000205 32.000208 32.000210 32.000212
32.000213 32.000213 32.000213 32.000213 32.000212 32.000210 32.000208 32.000205
32.000202 32.000198 32.000194 32.000190 32.000185 32.000179 32.000174 32.000168
32.000161 32.000155 32.000148 32.000141 32.000134 32.000127 32.000120 32.000114
32.000107 32.000101 32.000095 32.000090 32.000086 32.000084 32.000082 32.000083
32.000086 32.000093 32.000104 32.000122 32.000146 32.000181 32.000228 32.000291
32.000374 32.000484 32.000626 32.000810 32.001046 32.001347 32.001729 32.002210
32.002813 32.003565 32.004498 32.005650 32.007065 32.008793 32.010894 32.013435
32.016493 32.020154 32.024516 32.029685 32.035782 32.042936 32.051289 32.060994
32.072211 32.085112 32.099876 32.116687 32.135734 32.157206 32.181290 32.208171
32.238023 32.271010 32.307277 32.346953 32.390143 32.436922 32.487337 32.541399
32.599084 32.660328 32.725027 32.793036 32.864167 32.938194 33.014851 33.093838
33.174819 33.257432 33.341290 33.425989 33.511111
33.888889 33.782486 33.676612 33.571789 33.468523 33.367297 33.268564 33.172742
33.080209 32.991295 32.906284 32.825410 32.748855 32.676749 32.609171 32.546152
32.487678 32.433692 32.384096 32.338762 32.297529 32.260214 32.226613 32.196507
32.169667 32.145859 32.124845 32.106390 32.090263 32.076242 32.064112 32.053671
32.044728 32.037107 32.030645 32.025194 32.020617 32.016795 32.013619 32.010993
32.008833 32.007065 32.005625 32.004459 32.003519 32.002766 32.002165 32.001689
32.001313 32.001019 32.000790 32.000613 32.000477 32.000374 32.000296 32.000239
32.000197 32.000167 32.000147 32.000135 32.000127 32.000125 32.000126 32.000129
32.000134 32.000141 32.000149 32.000158 32.000167 32.000177 32.000186 32.000197
32.000207 32.000217 32.000227 32.000236 32.000245 32.000255 32.000263 32.000271
32.000278 32.000285 32.000290 32.000296 32.000300 32.000304 32.000308 32.000310
32.000312 32.000312 32.000312 32.000312 32.000310 32.000308 32.000304 32.000300
32.000296 32.000290 32.000285 32.000278 32.000271 32.000263 32.000254 32.000245
32.000236 32.000226 32.000217 32.000207 32.000197 32.000186 32.000176 32.000166
32.000157 32.000147 32.000139 32.000131 32.000125 32.000120 32.000117 32.000116
32.000120 32.000127 32.000140 32.000161 32.000191 32.000233 32.000291 32.000369
32.000472 32.000609 32.000786 32.001016 32.001310 32.001686 32.002163 32.002764
32.003517 32.004457 32.005624 32.007064 32.008832 32.010992 32.013618 32.016795
32.020617 32.025193 32.030645 32.037107 32.044728 32.053671 32.064112 32.076242
32.090263 32.106390 32.124845 32.145859 32.169667 32.196507 32.226613 32.260214
32.297529 32.338762 32.384096 32.433692 32.487678 32.546152 32.609171 32.676749
32.748855 32.825410 32.906284 32.991295 33.080209 33.172742 33.268564 33.367297
33.468523 33.571789 33.676612 33.782486 33.888889
34.266667 34.138983 34.011935 33.886147 33.762228 33.640757 33.522277 33.407291
33.296250 33.189553 33.087541 32.990493 32.898626 32.812099 32.731005 32.655383
32.585214 32.520430 32.460915 32.406514 32.357035 32.312257 32.271936 32.235809
32.203601 32.175031 32.149814 32.127668 32.108316 32.091491 32.076935 32.064405
32.053674 32.044529 32.036775 32.030233 32.024741 32.020155 32.016344 32.013193
32.010601 32.008479 32.006752 32.005353 32.004225 32.003322 32.002602 32.002030
32.001581 32.001228 32.000954 32.000742 32.000581 32.000458 32.000366 32.000298
32.000250 32.000216 32.000194 32.000180 32.000174 32.000173 32.000176 32.000182
32.000191 32.000201 32.000213 32.000225 32.000240 32.000253 32.000268 32.000282
32.000297 32.000311 32.000326 32.000339 32.000353 32.000365 32.000378 32.000389
32.000399 32.000409 32.000418 32.000425 32.000432 32.000437 32.000442 32.000445
32.000448 32.000449 32.000449 32.000448 32.000445 32.000442 32.000437 32.000432
32.000425 32.000418 32.000409 32.000399 32.000389 32.000378 32.000365 32.000353
32.000339 32.000326 32.000311 32.000297 32.000282 32.000268 32.000253 32.000239
32.000224 32.000211 32.000198 32.000187 32.000176 32.000169 32.000163 32.000161
32.000162 32.000170 32.000183 32.000207 32.000241 32.000290 32.000358 32.000451
32.000574 32.000737 32.000949 32.001224 32.001576 32.002027 32.002598 32.003319
32.004223 32.005351 32.006750 32.008478 32.010599 32.013192 32.016343 32.020154
32.024741 32.030232 32.036774 32.044528 32.053673 32.064405 32.076934 32.091491
32.108316 32.127668 32.149814 32.175031 32.203601 32.235809 32.271936 32.312257
32.357035 32.406514 32.460915 32.520430 32.585214 32.655383 32.731005 32.812099
32.898626 32.990493 33.087541 33.189553 33.296250 33.407291 33.522277 33.640757
33.762228 33.886147 34.011935 34.138983 34.266667
34.644444 34.495480 34.347257 34.200505 34.055933 33.914216 33.775990 33.641839
33.512292 33.387812 33.268798 33.155575 33.048397 32.947448 32.852839 32.764613
32.682750 32.607168 32.537735 32.474267 32.416541 32.364300 32.317258 32.275110
32.237534 32.204203 32.174783 32.148946 32.126369 32.106739 32.089757 32.075140
32.062620 32.051951 32.042904 32.035272 32.028866 32.023515 32.019069 32.015393
32.012369 32.009895 32.007880 32.006248 32.004934 32.003880 32.003040 32.002375
32.001851 32.001442 32.001123 32.000878 32.000690 32.000549 32.000443 32.000367
32.000312 32.000276 32.000252 32.000240 32.000235 32.000237 32.000243 32.000254
32.000267 32.000283 32.000300 32.000320 32.000339 32.000360 32.000380 32.000402
32.000422 32.000443 32.000463 32.000483 32.000501 32.000520 32.000536 32.000553
32.000567 32.000581 32.000593 32.000604 32.000613 32.000621 32.000627 32.000632
32.000635 32.000637 32.000637 32.000635 32.000632 32.000627 32.000621 32.000613
32.000604 32.000593 32.000581 32.000567 32.000553 32.000536 32.000520 32.000501
32.000483 32.000462 32.000443 32.000422 32.000401 32.000380 32.000359 32.000338
32.000318 32.000298 32.000280 32.000263 32.000248 32.000235 32.000225 32.000219
32.000218 32.000224 32.000238 32.000262 32.000300 32.000355 32.000433 32.000539
32.000681 32.000869 32.001116 32.001435 32.001846 32.002370 32.003036 32.003876
32.004930 32.006245 32.007878 32.009893 32.012368 32.015392 32.019068 32.023514
32.028865 32.035271 32.042904 32.051950 32.062619 32.075139 32.089757 32.106739
32.126369 32.148946 32.174783 32.204202 32.237534 32.275110 32.317258 32.364300
32.416541 32.474267 32.537735 32.607168 32.682750 32.764613 32.852839 32.947448
33.048397 33.155575 33.268798 33.387812 33.512292 33.641839 33.775990 33.914216
34.055933 34.200505 34.347257 34.495480 34.644444
35.022222 34.851977 34.682580 34.514863 34.349638 34.187676 34.029703 33.876388
33.728334 33.586071 33.450055 33.320657 33.198168 33.082798 32.974673 32.873844
32.780285 32.693907 32.614554 32.542019 32.476047 32.416343 32.362581 32.314412
32.271468 32.233374 32.199752 32.170224 32.144422 32.121988 32.102580 32.085874
32.071566 32.059373 32.049034 32.040312 32.032991 32.026876 32.021795 32.017595
32.014139 32.011312 32.009010 32.007146 32.005644 32.004441 32.003483 32.002724
32.002127 32.001660 32.001298 32.001020 32.000808 32.000649 32.000532 32.000447
32.000389 32.000350 32.000328 32.000316 32.000316 32.000322 32.000336 32.000352
32.000373 32.000396 32.000422 32.000449 32.000478 32.000506 32.000536 32.000565
32.000595 32.000624 32.000653 32.000680 32.000707 32.000731 32.000756 32.000778
32.000799 32.000818 32.000836 32.000851 32.000864 32.000875 32.000884 32.000891
32.000895 32.000898 32.000898 32.000895 32.000891 32.000884 32.000875 32.000864
32.000851 32.000836 32.000818 32.000799 32.000778 32.000756 32.000731 32.000707
32.000679 32.000653 32.000623 32.000595 32.000565 32.000536 32.000505 32.000477
32.000447 32.000420 32.000392 32.000368 32.000345 32.000326 32.000309 32.000298
32.000292 32.000295 32.000306 32.000331 32.000371 32.000431 32.000517 32.000636
32.000795 32.001009 32.001288 32.001651 32.002119 32.002717 32.003477 32.004436
32.005639 32.007142 32.009006 32.011309 32.014137 32.017592 32.021793 32.026875
32.032990 32.040311 32.049033 32.059372 32.071565 32.085874 32.102580 32.121988
32.144422 32.170224 32.199752 32.233374 32.271468 32.314411 32.362581 32.416343
32.476047 32.542019 32.614554 32.693907 32.780285 32.873844 32.974673 33.082798
33.198168 33.320657 33.450055 33.586071 33.728334 33.876388 34.029703 34.187676
34.349638 34.514863 34.682580 34.851977 35.022222
35.400000 35.208475 35.017902 34.829221 34.643342 34.461135 34.283416 34.110936
33.944375 33.784330 33.631311 33.485739 33.347940 33.218148 33.096508 32.983074
32.877821 32.780645 32.691373 32.609772 32.535553 32.468386 32.407904 32.353713
32.305402 32.262546 32.224721 32.191503 32.162475 32.137237 32.115403 32.096609
32.080513 32.066796 32.055165 32.045353 32.037117 32.030238 32.024523 32.019798
32.015911 32.012731 32.010142 32.008047 32.006358 32.005007 32.003930 32.003079
32.002409 32.001887 32.001482 32.001172 32.000937 32.000763 32.000635 32.000545
32.000483 32.000446 32.000425 32.000420 32.000424 32.000440 32.000460 32.000488
32.000517 32.000553 32.000589 32.000628 32.000667 32.000710 32.000750 32.000793
32.000833 32.000874 32.000913 32.000953 32.000989 32.001025 32.001058 32.001090
32.001119 32.001146 32.001169 32.001191 32.001209 32.001225 32.001237 32.001247
32.001253 32.001257 32.001257 32.001253 32.001247 32.001237 32.001225 32.001209
32.001191 32.001169 32.001146 32.001119 32.001090 32.001058 32.001025 32.000989
32.000953 32.000913 32.000874 32.000832 32.000792 32.000749 32.000708 32.000666
32.000626 32.000586 32.000549 32.000512 32.000480 32.000449 32.000425 32.000404
32.000393 32.000388 32.000397 32.000418 32.000458 32.000521 32.000614 32.000743
32.000920 32.001156 32.001468 32.001874 32.002398 32.003068 32.003922 32.004999
32.006352 32.008041 32.010137 32.012727 32.015907 32.019794 32.024520 32.030236
32.037115 32.045351 32.055164 32.066795 32.080512 32.096608 32.115403 32.137237
32.162475 32.191502 32.224721 32.262546 32.305401 32.353713 32.407904 32.468386
32.535553 32.609771 32.691373 32.780645 32.877821 32.983074 33.096508 33.218148
33.347940 33.485739 33.631311 33.784330 33.944375 34.110936 34.283416 34.461135
34.643342 34.829221 35.017902 35.208475 35.400000
35.777778 35.564972 35.353224 35.143579 34.937047 34.734595 34.537129 34.345485
34.160417 33.982589 33.812568 33.650821 33.497711 33.353498 33.218342 33.092305
32.975357 32.867383 32.768192 32.677524 32.595059 32.520429 32.453227 32.393015
32.339335 32.291718 32.249691 32.212781 32.180528 32.152486 32.128227 32.107344
32.089460 32.074219 32.061296 32.050394 32.041244 32.033601 32.027252 32.022002
32.017685 32.014153 32.011278 32.008951 32.007078 32.005578 32.004385 32.003441
32.002700 32.002123 32.001678 32.001338 32.001083 32.000893 32.000758 32.000663
32.000603 32.000568 32.000555 32.000556 32.000572 32.000597 32.000632 32.000670
32.000717 32.000765 32.000819 32.000872 32.000930 32.000986 32.001046 32.001102
32.001161 32.001216 32.001273 32.001326 32.001379 32.001427 32.001475 32.001517
32.001559 32.001595 32.001629 32.001658 32.001684 32.001705 32.001723 32.001736
32.001745 32.001749 32.001749 32.001745 32.001736 32.001723 32.001705 32.001684
32.001658 32.001629 32.001595 32.001559 32.001517 32.001475 32.001427 32.001379
32.001325 32.001273 32.001216 32.001161 32.001102 32.001045 32.000985 32.000929
32.000870 32.000816 32.000760 32.000711 32.000662 32.000620 32.000580 32.000550
32.000526 32.000514 32.000513 32.000531 32.000567 32.000632 32.000727 32.000867
32.001057 32.001316 32.001658 32.002105 32.002684 32.003427 32.004372 32.005567
32.007068 32.008943 32.011271 32.014147 32.017680 32.021998 32.027248 32.033598
32.041241 32.050392 32.061294 32.074217 32.089458 32.107344 32.128226 32.152486
32.180528 32.212781 32.249690 32.291718 32.339335 32.393014 32.453226 32.520429
32.595059 32.677524 32.768192 32.867383 32.975357 33.092305 33.218342 33.353498
33.497711 33.650821 33.812568 33.982589 34.160417 34.345485 34.537129 34.734595
34.937047 35.143579 35.353224 35.564972 35.777778
36.155556 35.921469 35.688547 35.457937 35.230752 35.008054 34.790842 34.580033
34.376459 34.180848 33.993825 33.815903 33.647482 33.488848 33.340176 33.201535
33.072892 32.954122 32.845012 32.745276 32.654565 32.572472 32.498549 32.432316
32.373269 32.320891 32.274660 32.234060 32.198582 32.167736 32.141050 32.118080
32.098407 32.081643 32.067428 32.055437 32.045372 32.036967 32.029983 32.024210
32.019462 32.015579 32.012418 32.009861 32.007803 32.006156 32.004847 32.003814
32.003003 32.002374 32.001889 32.001523 32.001248 32.001048 32.000906 32.000814
32.000755 32.000729 32.000724 32.000741 32.000769 32.000812 32.000862 32.000923
32.000986 32.001058 32.001130 32.001209 32.001286 32.001368 32.001447 32.001529
32.001607 32.001688 32.001762 32.001839 32.001908 32.001978 32.002041 32.002103
32.002158 32.002210 32.002255 32.002297 32.002332 32.002362 32.002386 32.002404
32.002416 32.002422 32.002422 32.002416 32.002404 32.002386 32.002362 32.002332
32.002297 32.002255 32.002210 32.002158 32.002103 32.002041 32.001978 32.001908
32.001839 32.001762 32.001687 32.001607 32.001529 32.001446 32.001367 32.001284
32.001207 32.001127 32.001053 32.000979 32.000913 32.000849 32.000794 32.000744
32.000707 32.000680 32.000670 32.000676 32.000708 32.000768 32.000866 32.001010
32.001214 32.001491 32.001862 32.002348 32.002981 32.003793 32.004830 32.006141
32.007790 32.009849 32.012409 32.015570 32.019455 32.024204 32.029978 32.036962
32.045368 32.055434 32.067426 32.081641 32.098406 32.118079 32.141049 32.167735
32.198581 32.234059 32.274660 32.320890 32.373269 32.432316 32.498549 32.572472
32.654565 32.745276 32.845012 32.954122 33.072892 33.201535 33.340176 33.488847
33.647482 33.815903 33.993825 34.180848 34.376459 34.580033 34.790842 35.008054
35.230752 35.457937 35.688547 35.921469 36.155556
36.533333 36.277966 36.023869 35.772295 35.524456 35.281513 35.044554 34.814582
34.592501 34.379107 34.175082 33.980985 33.797253 33.624197 33.462010 33.310766
33.170428 33.040860 32.921831 32.813029 32.714071 32.624515 32.543872 32.471618
32.407203 32.350063 32.299630 32.255339 32.216636 32.182985 32.153875 32.128817
32.107356 32.089068 32.073562 32.060481 32.049502 32.040334 32.032717 32.026421
32.021244 32.017009 32.013565 32.010778 32.008537 32.006745 32.005322 32.004199
32.003323 32.002642 32.002123 32.001730 32.001442 32.001234 32.001093 32.001002
32.000956 32.000939 32.000953 32.000985 32.001037 32.001100 32.001178 32.001261
32.001357 32.001453 32.001559 32.001663 32.001775 32.001883 32.001997 32.002106
32.002219 32.002324 32.002433 32.002532 32.002633 32.002725 32.002816 32.002897
32.002976 32.003045 32.003110 32.003165 32.003215 32.003255 32.003288 32.003313
32.003330 32.003338 32.003338 32.003330 32.003313 32.003288 32.003254 32.003215
32.003165 32.003110 32.003045 32.002976 32.002897 32.002816 32.002725 32.002633
32.002532 32.002432 32.002324 32.002218 32.002105 32.001996 32.001882 32.001773
32.001660 32.001555 32.001447 32.001349 32.001251 32.001164 32.001080 32.001011
32.000948 32.000904 32.000874 32.000869 32.000887 32.000942 32.001035 32.001183
32.001394 32.001689 32.002084 32.002609 32.003291 32.004173 32.005298 32.006724
32.008518 32.010763 32.013551 32.016998 32.021234 32.026412 32.032710 32.040328
32.049497 32.060477 32.073559 32.089065 32.107354 32.128815 32.153873 32.182984
32.216635 32.255338 32.299629 32.350062 32.407202 32.471618 32.543872 32.624515
32.714071 32.813029 32.921831 33.040860 33.170428 33.310766 33.462010 33.624197
33.797253 33.980985 34.175082 34.379107 34.592501 34.814582 35.044554 35.281513
35.524456 35.772295 36.023869 36.277966 36.533333
36.911111 36.634463 36.359192 36.086653 35.818161 35.554973 35.298267 35.049130
34.808542 34.577366 34.356339 34.146067 33.947024 33.759547 33.583844 33.419996
33.267964 33.127598 32.998650 32.880781 32.773577 32.676558 32.589195 32.510920
32.441137 32.379235 32.324600 32.276618 32.234690 32.198236 32.166699 32.139554
32.116305 32.096494 32.079697 32.065528 32.053635 32.043705 32.035454 32.028637
32.023031 32.018447 32.014719 32.011705 32.009282 32.007347 32.005812 32.004605
32.003662 32.002937 32.002384 32.001973 32.001672 32.001464 32.001325 32.001248
32.001214 32.001221 32.001254 32.001316 32.001394 32.001493 32.001600 32.001725
32.001852 32.001993 32.002133 32.002284 32.002431 32.002587 32.002737 32.002893
32.003040 32.003193 32.003334 32.003478 32.003609 32.003741 32.003860 32.003976
32.004079 32.004178 32.004263 32.004342 32.004407 32.004464 32.004508 32.004543
32.004565 32.004577 32.004577 32.004565 32.004543 32.004508 32.004464 32.004407
32.004342 32.004263 32.004178 32.004079 32.003976 32.003859 32.003741 32.003609
32.003478 32.003334 32.003192 32.003040 32.002892 32.002736 32.002586 32.002429
32.002281 32.002128 32.001987 32.001843 32.001713 32.001585 32.001472 32.001365
32.001277 32.001201 32.001150 32.001120 32.001124 32.001161 32.001249 32.001391
32.001609 32.001913 32.002332 32.002889 32.003621 32.004567 32.005780 32.007318
32.009258 32.011683 32.014701 32.018431 32.023018 32.028625 32.035445 32.043696
32.053628 32.065522 32.079693 32.096490 32.116302 32.139551 32.166697 32.198234
32.234689 32.276617 32.324599 32.379235 32.441136 32.510919 32.589195 32.676558
32.773577 32.880781 32.998650 33.127598 33.267964 33.419996 33.583844 33.759547
33.947024 34.146067 34.356339 34.577366 34.808542 35.049130 35.298267 35.554973
35.818161 36.086653 36.359192 36.634463 36.911111
37.288889 36.990960 36.694514 36.401010 36.111866 35.828432 35.551980 35.283679
35.024584 34.775625 34.537596 34.311149 34.096795 33.894897 33.705678 33.529227
33.365500 33.214337 33.075470 32.948534 32.833083 32.728601 32.634518 32.550222
32.475071 32.408408 32.349570 32.297897 32.252745 32.213487 32.179525 32.150293
32.125257 32.103922 32.085835 32.070577 32.057772 32.047079 32.038198 32.030858
32.024826 32.019894 32.015885 32.012645 32.010043 32.007967 32.006325 32.005034
32.004033 32.003263 32.002686 32.002257 32.001955 32.001748 32.001626 32.001562
32.001557 32.001588 32.001660 32.001753 32.001878 32.002014 32.002175 32.002341
32.002527 32.002712 32.002915 32.003112 32.003324 32.003528 32.003742 32.003946
32.004157 32.004354 32.004557 32.004743 32.004932 32.005103 32.005272 32.005424
32.005571 32.005699 32.005820 32.005922 32.006015 32.006090 32.006153 32.006198
32.006230 32.006245 32.006245 32.006230 32.006198 32.006153 32.006090 32.006015
32.005922 32.005820 32.005699 32.005571 32.005424 32.005272 32.005103 32.004932
32.004743 32.004557 32.004354 32.004156 32.003945 32.003741 32.003526 32.003322
32.003109 32.002910 32.002706 32.002518 32.002329 32.002158 32.001991 32.001847
32.001711 32.001603 32.001512 32.001456 32.001428 32.001449 32.001516 32.001653
32.001865 32.002179 32.002612 32.003200 32.003974 32.004984 32.006279 32.007929
32.010008 32.012616 32.015859 32.019872 32.024807 32.030843 32.038184 32.047068
32.057762 32.070569 32.085828 32.103917 32.125252 32.150289 32.179523 32.213485
32.252743 32.297896 32.349569 32.408407 32.475070 32.550221 32.634518 32.728601
32.833083 32.948534 33.075470 33.214337 33.365500 33.529227 33.705678 33.894897
34.096795 34.311149 34.537596 34.775625 35.024584 35.283679 35.551980 35.828432
36.111866 36.401010 36.694514 36.990960 37.288889
37.666667 37.347458 37.029837 36.715368 36.405570 36.101892 35.805693 35.518227
35.240626 34.973884 34.718852 34.476232 34.246566 34.030247 33.827513 33.638457
33.463035 33.301075 33.152289 33.016287 32.892589 32.780645 32.679842 32.589524
32.509006 32.437581 32.374541 32.319178 32.270800 32.228739 32.192352 32.161033
32.134209 32.111353 32.091975 32.075630 32.061912 32.050460 32.040947 32.033089
32.026630 32.021353 32.017064 32.013603 32.010824 32.008612 32.006863 32.005497
32.004439 32.003636 32.003034 32.002603 32.002300 32.002112 32.002006 32.001978
32.002001 32.002081 32.002192 32.002345 32.002516 32.002721 32.002935 32.003177
32.003421 32.003688 32.003952 32.004235 32.004510 32.004801 32.005079 32.005369
32.005642 32.005924 32.006185 32.006451 32.006695 32.006938 32.007157 32.007372
32.007562 32.007744 32.007901 32.008046 32.008166 32.008272 32.008353 32.008417
32.008458 32.008480 32.008480 32.008458 32.008417 32.008353 32.008272 32.008166
32.008046 32.007901 32.007744 32.007562 32.007372 32.007157 32.006938 32.006694
32.006451 32.006185 32.005923 32.005642 32.005368 32.005077 32.004799 32.004507
32.004232 32.003947 32.003681 32.003411 32.003164 32.002917 32.002697 32.002483
32.002300 32.002131 32.001999 32.001893 32.001834 32.001816 32.001864 32.001976
32.002182 32.002491 32.002938 32.003546 32.004362 32.005427 32.006803 32.008558
32.010778 32.013561 32.017031 32.021323 32.026605 32.033067 32.040930 32.050445
32.061900 32.075619 32.091967 32.111346 32.134204 32.161028 32.192349 32.228736
32.270798 32.319176 32.374539 32.437580 32.509005 32.589523 32.679841 32.780644
32.892589 33.016286 33.152289 33.301075 33.463035 33.638457 33.827513 34.030247
34.246566 34.476231 34.718852 34.973884 35.240626 35.518227 35.805693 36.101892
36.405570 36.715368 37.029837 37.347458 37.666667
38.044444 37.703955 37.365159 37.029726 36.699275 36.375351 36.059406 35.752776
35.456667 35.172143 34.900109 34.641314 34.396337 34.165597 33.949347 33.747688
33.560571 33.387814 33.229109 33.084039 32.952096 32.832688 32.725165 32.628827
32.542941 32.466755 32.399512 32.340459 32.288857 32.243993 32.205181 32.171775
32.143165 32.118787 32.098120 32.080688 32.066060 32.053848 32.043707 32.035330
32.028449 32.022827 32.018264 32.014581 32.011633 32.009286 32.007441 32.006001
32.004898 32.004063 32.003455 32.003020 32.002738 32.002568 32.002504 32.002512
32.002595 32.002722 32.002908 32.003120 32.003378 32.003651 32.003962 32.004279
32.004628 32.004976 32.005351 32.005718 32.006108 32.006484 32.006878 32.007252
32.007639 32.008002 32.008373 32.008715 32.009059 32.009373 32.009683 32.009959