# vtk DataFile Version 3.0
Steady-state temperature (Jacobi)
ASCII
DATASET STRUCTURED_POINTS
DIMENSIONS 181 181 1
ORIGIN 0.0 0.0 0.0
SPACING 0.05 0.05 1.0
POINT_DATA 32761
SCALARS Temperature float 1
LOOKUP_TABLE default
32.000000 32.000000 32.000000 32.000000 32.000000 32.000000 32.000000 32.000000
32.000000 32.000000 32.000000 32.000000 32.000000 32.000000 32.000000 32.000000
32.000000 32.000000 32.000000 32.000000 32.000000 32.000000 32.000000 32.000000
32.000000 32.000000 32.000000 32.000000 32.000000 32.000000 32.000000 32.000000
32.000000 32.000000 32.000000 32.000000 32.000000 32.000000 32.000000 32.000000
32.000000 32.000000 32.000000 32.000000 32.000000 32.000000 32.000000 32.000000
32.000000 32.000000 32.000000 32.000000 32.000000 32.000000 32.000000 32.000000
32.000000 32.000000 32.000000 32.000000 32.000000 32.000000 32.000000 32.000000
32.000000 32.000000 32.000000 32.000000 32.000000 32.000000 32.000000 32.000000
32.000000 32.000000 32.000000 32.000000 32.000000 32.000000 32.000000 32.000000
32.000000 32.000000 32.000000 32.000000 32.000000 32.000000 32.000000 32.000000
32.000000 32.000000 32.000000 32.000000 32.000000 32.000000 32.000000 32.000000
32.000000 32.000000 32.000000 32.000000 32.000000 32.000000 32.000000 32.000000
32.000000 32.000000 32.000000 32.000000 32.000000 32.000000 32.000000 32.000000
32.000000 32.000000 32.000000 32.000000 32.000000 32.000000 32.000000 32.000000
32.000000 32.000000 32.000000 32.000000 32.000000 32.000000 32.000000 32.000000
32.000000 32.000000 32.000000 32.000000 32.000000 32.000000 32.000000 32.000000
32.000000 32.000000 32.000000 32.000000 32.000000 32.000000 32.000000 32.000000
32.000000 32.000000 32.000000 32.000000 32.000000 32.000000 32.000000 32.000000
32.000000 32.000000 32.000000 32.000000 32.000000 32.000000 32.000000 32.000000
32.000000 32.000000 32.000000 32.000000 32.000000 32.000000 32.000000 32.000000
32.000000 32.000000 32.000000 32.000000 32.000000 32.000000 32.000000 32.000000
32.000000 32.000000 32.000000 32.000000 32.000000
32.377778 32.366664 32.355568 32.344510 32.333508 32.322581 32.311745 32.301022
32.290424 32.279973 32.269682 32.259570 32.249649 32.239939 32.230448 32.221196
32.212188 32.203446 32.194971 32.186784 32.178883 32.171290 32.163999 32.157032
32.150380 32.144064 32.138074 32.132428 32.127114 32.122152 32.117522 32.113248
32.109306 32.105719 32.102460 32.099553 32.096968 32.094729 32.092801 32.091211
32.089920 32.088955 32.088274 32.087905 32.087804 32.087998 32.088440 32.089159
32.090104 32.091307 32.092712 32.094353 32.096171 32.098200 32.100381 32.102748
32.105239 32.107888 32.110634 32.113511 32.116455 32.119501 32.122586 32.125745
32.128913 32.132125 32.135318 32.138526 32.141689 32.144836 32.147912 32.150945
32.153882 32.156749 32.159496 32.162149 32.164661 32.167056 32.169291 32.171387
32.173308 32.175071 32.176646 32.178047 32.179251 32.180267 32.181079 32.181694
32.182102 32.182305 32.182300 32.182088 32.181672 32.181047 32.180225 32.179198
32.177984 32.176571 32.174983 32.173206 32.171270 32.169158 32.166906 32.164492
32.161960 32.159284 32.156512 32.153618 32.150652 32.147587 32.144476 32.141291
32.138088 32.134835 32.131594 32.128330 32.125106 32.121887 32.118737 32.115621
32.112602 32.109645 32.106814 32.104073 32.101485 32.099015 32.096725 32.094580
32.092639 32.090869 32.089327 32.087981 32.086885 32.086007 32.085400 32.085034
32.084956 32.085138 32.085625 32.086389 32.087473 32.088849 32.090557 32.092570
32.094924 32.097593 32.100610 32.103951 32.107643 32.111665 32.116038 32.120743
32.125799 32.131184 32.136915 32.142973 32.149368 32.156081 32.163121 32.170468
32.178127 32.186079 32.194326 32.202848 32.211644 32.220694 32.229994 32.239524
32.249278 32.259234 32.269384 32.279708 32.290194 32.300822 32.311578 32.322442
32.333399 32.344428 32.355514 32.366637 32.377778
32.755556 32.733330 32.711142 32.689028 32.667027 32.645174 32.623508 32.602060
32.580872 32.559970 32.539395 32.519171 32.499338 32.479916 32.460945 32.442439
32.424438 32.406950 32.390017 32.373638 32.357856 32.342665 32.328105 32.314166
32.300887 32.288250 32.276297 32.265001 32.254404 32.244472 32.235249 32.226694
32.218849 32.211668 32.205194 32.199373 32.194251 32.189764 32.185962 32.182772
32.180248 32.178308 32.177008 32.176261 32.176124 32.176503 32.177457 32.178886
32.180852 32.183247 32.186136 32.189406 32.193124 32.197172 32.201618 32.206340
32.211408 32.216697 32.222276 32.228019 32.233996 32.240079 32.246337 32.252644
32.259067 32.265481 32.271954 32.278360 32.284767 32.291054 32.297283 32.303342
32.309288 32.315015 32.320577 32.325876 32.330961 32.335744 32.340268 32.344455
32.348343 32.351865 32.355053 32.357852 32.360287 32.362318 32.363961 32.365190
32.366014 32.366419 32.366410 32.365987 32.365144 32.363897 32.362233 32.360182
32.357724 32.354902 32.351689 32.348139 32.344222 32.340003 32.335444 32.330623
32.325497 32.320152 32.314541 32.308760 32.302755 32.296633 32.290334 32.283971
32.277483 32.270987 32.264419 32.257901 32.251365 32.244938 32.238550 32.232328
32.226201 32.220298 32.214548 32.209077 32.203815 32.198886 32.194221 32.189941
32.185977 32.182448 32.179286 32.176604 32.174337 32.172593 32.171308 32.170585
32.170363 32.170736 32.171648 32.173187 32.175296 32.178058 32.181420 32.185455
32.190113 32.195461 32.201451 32.208140 32.215485 32.223534 32.232246 32.241662
32.251741 32.262518 32.273953 32.286072 32.298838 32.312269 32.326327 32.341026
32.356326 32.372234 32.388711 32.405758 32.423336 32.441439 32.460027 32.479090
32.498586 32.518501 32.538793 32.559442 32.580407 32.601663 32.623169 32.644897
32.666806 32.688864 32.711032 32.733275 32.755556
33.133333 33.100001 33.066724 33.033562 33.000565 32.967795 32.935300 32.903140
32.871360 32.840022 32.809162 32.778843 32.749096 32.719983 32.691528 32.663793
32.636793 32.610590 32.585191 32.560657 32.536985 32.514236 32.492399 32.471534
32.451618 32.432713 32.414786 32.397899 32.382007 32.367174 32.353344 32.340582
32.328821 32.318128 32.308425 32.299781 32.292106 32.285473 32.279778 32.275100
32.271324 32.268530 32.266592 32.265596 32.265404 32.266105 32.267551 32.269835
32.272800 32.276541 32.280893 32.285954 32.291550 32.297784 32.304473 32.311723
32.319347 32.327449 32.335841 32.344627 32.353616 32.362912 32.372323 32.381954
32.391613 32.401402 32.411134 32.420907 32.430539 32.440126 32.449493 32.458729
32.467668 32.476397 32.484760 32.492834 32.500480 32.507766 32.514568 32.520946
32.526791 32.532156 32.536948 32.541212 32.544873 32.547966 32.550437 32.552307
32.553546 32.554165 32.554151 32.553506 32.552239 32.550340 32.547839 32.544716
32.541021 32.536722 32.531892 32.526486 32.520596 32.514170 32.507316 32.499973
32.492265 32.484122 32.475686 32.466877 32.457849 32.448517 32.439046 32.429346
32.419591 32.409684 32.399808 32.389863 32.380036 32.370225 32.360618 32.351113
32.341900 32.332874 32.324226 32.315850 32.307935 32.300375 32.293357 32.286775
32.280811 32.275361 32.270600 32.266428 32.263012 32.260254 32.258312 32.257094
32.256748 32.257184 32.258540 32.260732 32.263887 32.267923 32.272957 32.278912
32.285892 32.293825 32.302803 32.312757 32.323769 32.335771 32.348834 32.362894
32.378009 32.394118 32.411267 32.429396 32.448542 32.468645 32.489730 32.511740
32.534688 32.558517 32.583233 32.608775 32.635140 32.662270 32.690151 32.718724
32.747968 32.777822 32.808259 32.839217 32.870663 32.902534 32.934791 32.967373
33.000233 33.033312 33.066560 33.099919 33.133333
33.511111 33.466679 33.422324 33.378117 33.334137 33.290452 33.247144 33.204273
33.161921 33.120144 33.079023 33.038606 32.998974 32.960165 32.922262 32.885291
32.849334 32.814406 32.780590 32.747889 32.716384 32.686066 32.657015 32.629210
32.602732 32.577543 32.553727 32.531231 32.510139 32.490385 32.472055 32.455066
32.439508 32.425283 32.412482 32.400992 32.390909 32.382104 32.374677 32.368483
32.363629 32.359952 32.357564 32.356289 32.356243 32.357235 32.359388 32.362496
32.366686 32.371741 32.377793 32.384612 32.392334 32.400720 32.409909 32.419653
32.430094 32.440978 32.452447 32.464245 32.476512 32.488991 32.501821 32.514746
32.527903 32.541038 32.554286 32.567398 32.580504 32.593365 32.606104 32.618492
32.630647 32.642354 32.653722 32.664551 32.674942 32.684714 32.693956 32.702509
32.710450 32.717644 32.724155 32.729873 32.734847 32.738994 32.742350 32.744858
32.746542 32.747371 32.747353 32.746487 32.744767 32.742221 32.738825 32.734636
32.729618 32.723854 32.717292 32.710044 32.702043 32.693426 32.684114 32.674266
32.663792 32.652873 32.641406 32.629592 32.617319 32.604803 32.591925 32.578913
32.565643 32.552354 32.538913 32.525571 32.512189 32.499023 32.485933 32.473175
32.460609 32.448491 32.436680 32.425431 32.414602 32.404445 32.394818 32.385967
32.377755 32.370417 32.363820 32.358190 32.353398 32.349658 32.346845 32.345163
32.344491 32.345020 32.346633 32.349507 32.353532 32.358870 32.365416 32.373317
32.382472 32.393015 32.404849 32.418091 32.432649 32.448626 32.465933 32.484656
32.504712 32.526170 32.548948 32.573103 32.598555 32.625344 32.653392 32.682725
32.713265 32.745027 32.777930 32.811977 32.847089 32.883254 32.920392 32.958482
32.997442 33.037241 33.077797 33.119069 33.160974 33.203462 33.246453 33.289887
33.333686 33.377783 33.422101 33.466569 33.511111
33.888889 33.833369 33.777942 33.722705 33.667747 33.613167 33.559046 33.505488
33.452564 33.400378 33.348993 33.298513 33.248990 33.200529 33.153168 33.107012
33.062086 33.018495 32.976249 32.935451 32.896097 32.858290 32.822009 32.787357
32.754296 32.722930 32.693201 32.665217 32.638901 32.614362 32.591506 32.570442
32.551057 32.533467 32.517537 32.503387 32.490864 32.480092 32.470897 32.463411
32.457441 32.453124 32.450246 32.448953 32.449012 32.450575 32.453391 32.457619
32.462992 32.469672 32.477380 32.486282 32.496086 32.506962 32.518606 32.531191
32.544406 32.558425 32.572929 32.588095 32.603599 32.619617 32.635826 32.652400
32.669015 32.685845 32.702571 32.719359 32.735903 32.752362 32.768439 32.784287
32.799626 32.814597 32.828940 32.842786 32.855895 32.868386 32.880045 32.890976
32.900994 32.910187 32.918400 32.925705 32.931979 32.937278 32.941511 32.944716
32.946840 32.947899 32.947877 32.946772 32.944603 32.941350 32.937067 32.931717
32.925387 32.918023 32.909747 32.900486 32.890394 32.879382 32.867636 32.855050
32.841837 32.827879 32.813412 32.798306 32.782821 32.766813 32.750562 32.733914
32.717166 32.700155 32.683189 32.666100 32.649204 32.632328 32.615795 32.599427
32.583550 32.567984 32.553052 32.538577 32.524878 32.511776 32.499584 32.488128
32.477711 32.468161 32.459771 32.452373 32.446246 32.441230 32.437587 32.435163
32.434206 32.434566 32.436475 32.439789 32.444722 32.451138 32.459232 32.468874
32.480239 32.493204 32.507925 32.524285 32.542421 32.562219 32.583797 32.607048
32.632069 32.658756 32.687187 32.717261 32.749039 32.782421 32.817449 32.854025
32.892173 32.931796 32.972903 33.015394 33.059263 33.104411 33.150816 33.198379
33.247064 33.296770 33.347451 33.399005 33.451372 33.504453 33.558177 33.612445
33.667179 33.722279 33.777661 33.833228 33.888889
34.266667 34.200070 34.133587 34.067329 34.001413 33.935941 33.871036 33.806791
33.743328 33.680730 33.619122 33.558573 33.499210 33.441086 33.384327 33.328974
33.275150 33.222879 33.172284 33.123371 33.076264 33.030947 32.987545 32.946022
32.906504 32.868932 32.833435 32.799932 32.768554 32.739197 32.711994 32.686819
32.663810 32.642817 32.623982 32.607131 32.592413 32.579630 32.568937 32.560113
32.553321 32.548314 32.545264 32.543902 32.544405 32.546486 32.550328 32.555622
32.562559 32.570810 32.580575 32.591506 32.603807 32.617118 32.631647 32.647019
32.663447 32.680547 32.698533 32.717014 32.736205 32.755711 32.775747 32.795919
32.816436 32.836911 32.857547 32.877967 32.898365 32.918378 32.938191 32.957457
32.976353 32.994550 33.012214 33.029040 33.045180 33.060358 33.074709 33.087991
33.100321 33.111490 33.121596 33.130472 33.138192 33.144629 33.149838 33.153732
33.156344 33.157631 33.157604 33.156263 33.153595 33.149644 33.144376 33.137876
33.130090 33.121144 33.110962 33.099711 33.087293 33.073915 33.059459 33.044166
33.027902 33.010940 32.993128 32.974769 32.955698 32.936240 32.916218 32.895979
32.875334 32.854648 32.833723 32.812937 32.792084 32.771550 32.751124 32.731199
32.711560 32.692599 32.674100 32.656453 32.639443 32.623451 32.608265 32.594258
32.581220 32.569512 32.558929 32.549816 32.541975 32.535734 32.530901 32.527787
32.526205 32.526447 32.528335 32.532138 32.537687 32.545227 32.554599 32.566025
32.579353 32.594782 32.612167 32.631684 32.653194 32.676850 32.702519 32.730331
32.760156 32.792101 32.826042 32.862063 32.900042 32.940041 32.981940 33.025780
33.071441 33.118944 33.168171 33.219122 33.271679 33.325823 33.381436 33.438482
33.496841 33.556463 33.617226 33.679067 33.741863 33.805537 33.869968 33.935068
34.000715 34.066813 34.133243 34.199899 34.266667
34.644444 34.566787 34.489261 34.412003 34.335136 34.258802 34.183115 34.108219
34.034215 33.961251 33.889414 33.818852 33.749637 33.681917 33.615747 33.551274
33.488535 33.427676 33.368713 33.311792 33.256906 33.204203 33.153652 33.105400
33.059393 33.015779 32.974478 32.935640 32.899160 32.865192 32.833601 32.804547
32.777868 32.753729 32.731940 32.712672 32.695708 32.681226 32.668981 32.659159
32.651486 32.646159 32.642876 32.641841 32.642728 32.645750 32.650554 32.657363
32.665799 32.676094 32.687850 32.701303 32.716037 32.732294 32.749642 32.768327
32.787904 32.808622 32.830024 32.852364 32.875178 32.898717 32.922517 32.946827
32.971186 32.995836 33.020326 33.044890 33.069089 33.093149 33.116647 33.139799
33.162203 33.184061 33.205000 33.225205 33.244335 33.262557 33.279565 33.295507
33.310117 33.323520 33.335496 33.346145 33.355293 33.363016 33.369188 33.373860
33.376956 33.378501 33.378469 33.376861 33.373700 33.368962 33.362721 33.354925
33.345700 33.334968 33.322904 33.309405 33.294692 33.278638 33.261507 33.243153
33.223877 33.203514 33.182402 33.160355 33.137746 33.114371 33.090629 33.066305
33.041819 33.016944 32.992118 32.967104 32.942353 32.917620 32.893365 32.869338
32.846001 32.823102 32.801100 32.779744 32.759488 32.740080 32.721966 32.704896
32.689303 32.674943 32.662232 32.650933 32.641441 32.633528 32.627568 32.623340
32.621196 32.620923 32.622850 32.626773 32.632994 32.641319 32.652024 32.664923
32.680265 32.697874 32.717971 32.740388 32.765318 32.792601 32.822402 32.854567
32.889235 32.926256 32.965742 33.007548 33.051759 33.098233 33.147031 33.198011
33.251209 33.306487 33.363855 33.423175 33.484436 33.547499 33.612333 33.678796
33.746840 33.816323 33.887176 33.959258 34.032486 34.106717 34.181854 34.257756
34.334313 34.411385 34.488855 34.566583 34.644444
35.022222 34.933521 34.844974 34.756727 34.668940 34.581749 34.495318 34.409770
34.325274 34.241939 34.159932 34.079346 34.000351 33.923021 33.847524 33.773914
33.702359 33.632890 33.565675 33.500719 33.438191 33.378071 33.320527 33.265511
33.213194 33.163497 33.116595 33.072380 33.031028 32.992400 32.956679 32.923694
32.893633 32.866292 32.841868 32.820124 32.801264 32.785021 32.771606 32.760720
32.752584 32.746867 32.743801 32.743023 32.744775 32.748664 32.754944 32.763192
32.773671 32.785933 32.800248 32.816147 32.833905 32.853032 32.873810 32.895731
32.919083 32.943342 32.968798 32.994920 33.021998 33.049496 33.077700 33.106076
33.134908 33.163665 33.192624 33.221267 33.249861 33.277906 33.305655 33.332633
33.359078 33.384542 33.409248 33.432782 33.455347 33.476567 33.496624 33.515186
33.532412 33.548018 33.562135 33.574533 33.585315 33.594306 33.601581 33.607020
33.610669 33.612468 33.612432 33.610561 33.606838 33.601322 33.593969 33.584895
33.574024 33.561532 33.547314 33.531599 33.514255 33.495564 33.475368 33.453995
33.431265 33.407550 33.382646 33.356966 33.330286 33.303053 33.275026 33.246679
33.217757 33.188759 33.159415 33.130243 33.100963 33.072104 33.043380 33.015325
32.987649 32.960887 32.934746 32.909758 32.885629 32.862882 32.841228 32.821172
32.802432 32.785498 32.770091 32.756680 32.744996 32.735485 32.727885 32.722617
32.719428 32.718713 32.720229 32.724341 32.730818 32.739993 32.751647 32.766081
32.783087 32.802936 32.825427 32.850799 32.878862 32.909823 32.943499 32.980066
33.019347 33.061487 33.106314 33.153944 33.204209 33.257194 33.312734 33.370886
33.431487 33.494565 33.559958 33.627669 33.697536 33.769536 33.843507 33.919403
33.997061 34.076414 34.157298 34.239629 34.323240 34.408030 34.493834 34.580535
34.667971 34.756011 34.844496 34.933285 35.022222
35.400000 35.300278 35.200725 35.101519 35.002820 34.904812 34.807639 34.711492
34.616500 34.522854 34.430669 34.340135 34.251346 34.164495 34.079653 33.997012
33.916618 33.838663 33.763167 33.690321 33.620118 33.552748 33.488173 33.426585
33.367915 33.312356 33.259805 33.210461 33.164184 33.121178 33.081269 33.044667
33.011161 32.980969 32.953842 32.930008 32.909182 32.891601 32.876942 32.865453
32.856776 32.851170 32.848239 32.848255 32.850788 32.856121 32.863789 32.874087
32.886520 32.901391 32.918178 32.937192 32.957885 32.980577 33.004697 33.030570
33.057607 33.086138 33.115560 33.146204 33.177460 33.209655 33.242180 33.275357
33.308580 33.342165 33.375515 33.408938 33.441852 33.474553 33.506484 33.537923
33.568344 33.598006 33.626419 33.653823 33.679767 33.704470 33.727527 33.749131
33.768931 33.787090 33.803315 33.817740 33.830132 33.840592 33.848952 33.855280
33.859474 33.861567 33.861527 33.859351 33.855074 33.848661 33.840212 33.829659
33.817168 33.802637 33.786298 33.768016 33.748083 33.726335 33.703120 33.678247
33.652116 33.624508 33.595873 33.565968 33.535284 33.503557 33.471313 33.438272
33.404989 33.371167 33.337384 33.303332 33.269605 33.235884 33.202775 33.169952
33.138023 33.106660 33.076468 33.047117 33.019205 32.992403 32.967297 32.943561
32.921763 32.901583 32.883568 32.867405 32.853617 32.841898 32.832744 32.825861
32.821712 32.820015 32.821202 32.825003 32.831814 32.841377 32.854055 32.869602
32.888343 32.910044 32.934996 32.962974 32.994233 33.028557 33.066166 33.106853
33.150801 33.197810 33.248028 33.301262 33.357625 33.416927 33.479249 33.544405
33.612441 33.683175 33.756622 33.832600 33.911097 33.991928 34.075055 34.160294
34.247581 34.336730 34.427656 34.520172 34.614172 34.709470 34.805942 34.903403
35.001712 35.100688 35.200178 35.300003 35.400000
35.777778 35.667055 35.556527 35.446377 35.336806 35.227985 35.120123 35.013374
34.907950 34.803987 34.701701 34.601205 34.502716 34.406326 34.312249 34.220552
34.131449 34.044979 33.961355 33.880584 33.802882 33.728222 33.656820 33.588615
33.523825 33.462352 33.404419 33.349887 33.298987 33.251540 33.207781 33.167493
33.130919 33.097801 33.068390 33.042387 33.020055 33.001052 32.985653 32.973474
32.964803 32.959216 32.957012 32.957728 32.961676 32.968353 32.978085 32.990333
33.005432 33.022812 33.042818 33.064846 33.089253 33.115408 33.143673 33.173396
33.204944 33.237646 33.271871 33.306937 33.343213 33.380011 33.417696 33.455580
33.494024 33.532346 33.570898 33.609014 33.647031 33.684307 33.721164 33.756988
33.792083 33.825873 33.858638 33.889846 33.919755 33.947881 33.974454 33.999048
34.021862 34.042532 34.061225 34.077642 34.091916 34.103821 34.113450 34.120652
34.125484 34.127868 34.127823 34.125348 34.120425 34.113128 34.103399 34.091391
34.077006 34.060471 34.041652 34.020846 33.997884 33.973130 33.946382 33.918065
33.887950 33.856515 33.823502 33.789444 33.754055 33.717911 33.680707 33.643053
33.604626 33.566067 33.527034 33.488193 33.449189 33.410701 33.372366 33.334871
33.297848 33.261981 33.226901 33.193288 33.160769 33.130014 33.100653 33.073337
33.047703 33.024380 33.003009 32.984195 32.967588 32.953762 32.942379 32.933978
32.928235 32.925652 32.925919 32.929500 32.936097 32.946137 32.959335 32.976077
32.996093 33.019727 33.046721 33.077379 33.111456 33.149214 33.190417 33.235289
33.283601 33.335538 33.390880 33.449771 33.511996 33.577664 33.646562 33.718763
33.794058 33.872484 33.953832 34.038108 34.125103 34.214791 34.306964 34.401566
34.498388 34.597348 34.698237 34.800949 34.905274 35.011084 35.118172 35.226389
35.335532 35.445435 35.555898 35.666744 35.777778
36.155556 36.033862 35.912377 35.791320 35.670888 35.551307 35.432757 35.315471
35.199610 35.085410 34.973010 34.862649 34.754442 34.648626 34.545290 34.444673
34.346830 34.252003 34.160214 34.071704 33.986460 33.904724 33.826446 33.751869
33.680904 33.613797 33.550418 33.491019 33.435426 33.383896 33.336212 33.292641
33.252918 33.217321 33.185539 33.157862 33.133931 33.114049 33.097812 33.085535
33.076768 33.071841 33.070258 33.072362 33.077616 33.086375 33.098059 33.113037
33.130691 33.151401 33.174511 33.200413 33.228419 33.258929 33.291225 33.325715
33.361659 33.399468 33.438384 33.478819 33.520006 33.562354 33.605092 33.648625
33.692186 33.736170 33.779824 33.823530 33.866556 33.909267 33.950961 33.991984
34.031671 34.070345 34.107387 34.143093 34.176896 34.209066 34.239094 34.267216
34.292992 34.316623 34.337739 34.356506 34.372630 34.386236 34.397113 34.405345
34.410803 34.413529 34.413479 34.410654 34.405094 34.396758 34.385772 34.372052
34.355806 34.336910 34.315655 34.291874 34.265935 34.237637 34.207417 34.175038
34.141006 34.105051 34.067738 34.028768 33.988758 33.947383 33.905307 33.862180
33.818704 33.774509 33.730327 33.685771 33.641594 33.597397 33.553944 33.510830
33.468820 33.427505 33.387649 33.348837 33.311825 33.276199 33.242698 33.210912
33.181556 33.154230 33.129618 33.107330 33.088019 33.071304 33.057803 33.047149
33.039921 33.035763 33.035215 33.037935 33.044421 33.054345 33.068161 33.085557
33.106939 33.132011 33.161134 33.194026 33.231002 33.271791 33.316664 33.365360
33.418107 33.474654 33.535182 33.599448 33.667594 33.739380 33.814906 33.893937
33.976535 34.062466 34.151755 34.244168 34.339695 34.438103 34.539348 34.643198
34.749576 34.858251 34.969118 35.081945 35.196603 35.312860 35.430565 35.549488
35.669457 35.790247 35.911670 36.033507 36.155556
36.533333 36.400695 36.268291 36.136344 36.005101 35.874766 35.745592 35.617767
35.491549 35.367101 35.244686 35.124442 35.006632 34.891368 34.778911 34.669342
34.562924 34.459702 34.359940 34.263644 34.171081 34.082216 33.997317 33.916309
33.839462 33.766655 33.698165 33.633824 33.573915 33.518222 33.467036 33.420093
33.377695 33.339524 33.305896 33.276442 33.251491 33.230623 33.214180 33.201692
33.193517 33.189133 33.188912 33.192285 33.199639 33.210356 33.224838 33.242422
33.263524 33.287437 33.314590 33.344238 33.376820 33.411556 33.448892 33.488022
33.529397 33.572187 33.616844 33.662525 33.709680 33.757458 33.806305 33.855369
33.905090 33.954623 34.004396 34.053585 34.102601 34.150646 34.198112 34.244239
34.289396 34.332867 34.374994 34.415118 34.453549 34.489690 34.523818 34.555406
34.584695 34.611234 34.635224 34.656298 34.674615 34.689893 34.702248 34.711492
34.717692 34.720753 34.720699 34.717529 34.711218 34.701861 34.689387 34.673984
34.655535 34.634320 34.610178 34.583475 34.554009 34.522228 34.487891 34.451522
34.412842 34.372446 34.330023 34.286229 34.240720 34.194210 34.146326 34.097828
34.048321 33.998599 33.948249 33.898092 33.847699 33.797911 33.748284 33.699670
33.651618 33.604977 33.559293 33.515410 33.472870 33.432501 33.393850 33.357721
33.323667 33.292465 33.263674 33.238039 33.215129 33.195651 33.179188 33.166403
33.156894 33.151281 33.149177 33.151154 33.156841 33.166762 33.180564 33.198719
33.220891 33.247502 33.278231 33.313450 33.352852 33.396761 33.444879 33.497483
33.554287 33.615517 33.680897 33.750607 33.824378 33.902344 33.984240 34.070156
34.159834 34.253319 34.350354 34.450946 34.554839 34.662002 34.772179 34.885303
35.001119 35.119529 35.240276 35.363232 35.488142 35.614852 35.743108 35.872734
36.003479 36.135146 36.267490 36.400298 36.533333
36.911111 36.767562 36.624263 36.481475 36.339432 36.198406 36.058611 35.920326
35.783743 35.649146 35.516700 35.386691 35.259256 35.134683 35.013075 34.894721
34.779688 34.668267 34.560484 34.456631 34.356693 34.260963 34.169382 34.082245
33.999445 33.921285 33.847604 33.778714 33.714402 33.654988 33.600207 33.550388
33.505211 33.465018 33.429434 33.398814 33.372726 33.351541 33.334770 33.322801
33.315090 33.312039 33.313049 33.318541 33.327860 33.341443 33.358585 33.379738
33.404147 33.432278 33.463333 33.497787 33.534803 33.574866 33.617102 33.662004
33.708670 33.757595 33.807857 33.859951 33.912941 33.967320 34.022145 34.077902
34.133656 34.189880 34.245652 34.301432 34.356323 34.410764 34.463895 34.516130
34.566656 34.615859 34.662980 34.708375 34.751350 34.792226 34.830381 34.866098
34.898837 34.928839 34.955652 34.979472 34.999941 35.017208 35.031016 35.041462
35.048392 35.051853 35.051795 35.048215 35.041166 35.030596 35.016660 34.999257
34.978645 34.954672 34.927695 34.897516 34.864585 34.828659 34.790277 34.749154
34.705909 34.660220 34.612778 34.563225 34.512318 34.459667 34.406084 34.351152
34.295729 34.239372 34.182974 34.126075 34.069593 34.013051 33.957382 33.902097
33.848135 33.795001 33.743628 33.693516 33.645588 33.599344 33.555684 33.514113
33.475502 33.439364 33.406535 33.376538 33.350171 33.326966 33.307677 33.291854
33.280201 33.272283 33.268754 33.269197 33.274213 33.283402 33.297311 33.315558
33.338635 33.366176 33.398619 33.435615 33.477546 33.524078 33.575538 33.631605
33.692553 33.758073 33.828386 33.903193 33.982662 34.066502 34.154833 34.247369
34.344183 34.444992 34.549823 34.658397 34.770698 34.886447 35.005590 35.127847
35.253128 35.381153 35.511798 35.644784 35.779958 35.917040 36.055851 36.196116
36.337630 36.480124 36.623373 36.767116 36.911111
37.288889 37.134461 36.980311 36.826701 36.673919 36.522210 36.371871 36.223124
36.076273 35.931513 35.789154 35.649358 35.512440 35.378528 35.247936 35.120758
34.997310 34.877641 34.762070 34.650603 34.543561 34.440901 34.342947 34.249608
34.161212 34.077614 33.999149 33.925617 33.857362 33.794126 33.736264 33.683459
33.636080 33.593747 33.556844 33.524932 33.498410 33.476775 33.460446 33.448858
33.442446 33.440585 33.443727 33.451189 33.463441 33.479739 33.500570 33.525138
33.553944 33.586137 33.622235 33.661341 33.703980 33.749214 33.797578 33.848098
33.901315 33.956225 34.013371 34.071730 34.131843 34.192677 34.254765 34.317076
34.380132 34.442912 34.505922 34.568164 34.630126 34.690842 34.750776 34.809006
34.865969 34.920799 34.973900 35.024471 35.072881 35.118406 35.161374 35.201146
35.238005 35.271407 35.301589 35.328106 35.351144 35.370365 35.385904 35.397533
35.405332 35.409187 35.409124 35.405142 35.397214 35.385452 35.369775 35.350408
35.327215 35.300534 35.270175 35.236582 35.199516 35.159520 35.116308 35.070517
35.021816 34.970928 34.917481 34.862275 34.804901 34.746223 34.685803 34.624558
34.562022 34.499158 34.435475 34.371968 34.308128 34.244972 34.181975 34.120164
34.059005 33.999526 33.941183 33.884996 33.830420 33.778455 33.728557 33.681698
33.637341 33.596423 33.558414 33.524211 33.493296 33.466519 33.443376 33.424666
33.409901 33.399826 33.393971 33.393023 33.396533 33.405127 33.418376 33.436846
33.460125 33.488722 33.522242 33.561133 33.605017 33.654282 33.708567 33.768200
33.832833 33.902737 33.977576 34.057563 34.142373 34.232164 34.326618 34.425841
34.529521 34.637712 34.750106 34.866712 34.987221 35.111598 35.239537 35.370961
35.505563 35.643229 35.783654 35.926687 36.072025 36.219488 36.368774 36.519676
36.671897 36.825206 36.979313 37.133967 37.288889
37.666667 37.501402 37.336428 37.172053 37.008547 36.846229 36.685349 36.526234
36.369107 36.214301 36.062009 35.912568 35.766136 35.623054 35.483441 35.347639
35.215726 35.088045 34.964628 34.845821 34.731606 34.622333 34.517929 34.418752
34.324672 34.236053 34.152706 34.075005 34.002699 33.936173 33.875114 33.819919
33.770211 33.726401 33.688046 33.655574 33.628475 33.607196 33.591158 33.580828
33.575559 33.575839 33.580953 33.591408 33.606427 33.626533 33.650886 33.680028
33.713060 33.750538 33.791509 33.836542 33.884634 33.936364 33.990688 34.048189
34.107789 34.170075 34.233941 34.299973 34.367049 34.435749 34.504946 34.575210
34.645419 34.716129 34.786234 34.856274 34.925171 34.993441 35.060051 35.125486
35.188768 35.250351 35.309322 35.366098 35.419845 35.470938 35.518632 35.563255
35.604161 35.641631 35.675121 35.704861 35.730422 35.751978 35.769218 35.782259
35.790913 35.795238 35.795171 35.790710 35.781918 35.768734 35.751346 35.729634
35.703907 35.673990 35.640311 35.602637 35.561510 35.516645 35.468690 35.417311
35.363253 35.306137 35.246796 35.184809 35.121087 35.055173 34.988042 34.919205
34.849693 34.778988 34.708161 34.636672 34.565623 34.494454 34.424283 34.354536
34.286339 34.219107 34.153959 34.090305 34.029249 33.970199 33.914232 33.860761
33.810828 33.763853 33.720835 33.681204 33.645912 33.614403 33.587573 33.564883
33.547171 33.533916 33.525896 33.522608 33.524766 33.531889 33.544626 33.562515
33.586140 33.615059 33.649791 33.689913 33.735877 33.787280 33.844507 33.907173
33.975600 34.049414 34.128878 34.213629 34.303868 34.399245 34.499901 34.605493
34.716108 34.831407 34.951424 35.075825 35.204594 35.337398 35.474175 35.614595
35.758551 35.905715 36.055943 36.208905 36.364422 36.522169 36.681934 36.843396
37.006317 37.170382 37.335328 37.500850 37.666667
38.044444 37.868380 37.692636 37.517517 37.343358 37.170440 36.999110 36.829623
36.662334 36.497466 36.335382 36.176268 36.020492 35.868202 35.719767 35.575293
35.435151 35.299399 35.168412 35.042196 34.921129 34.805162 34.694680 34.589573
34.490233 34.396490 34.308745 34.226760 34.150950 34.081010 34.017368 33.959649
33.908297 33.862866 33.823818 33.790634 33.763795 33.742710 33.727879 33.718639
33.715510 33.717755 33.725916 33.739186 33.758124 33.781855 33.810958 33.844489
33.883045 33.925621 33.972827 34.023601 34.078565 34.136607 34.198356 34.262656
34.330142 34.399624 34.471737 34.545266 34.620842 34.697239 34.775078 34.853131
34.932006 35.010489 35.089168 35.166854 35.244114 35.319796 35.394440 35.466947
35.537823 35.606035 35.672053 35.734922 35.795068 35.851630 35.904986 35.954375