# vtk DataFile Version 3.0
Steady-state temperature (Jacobi)
ASCII
DATASET STRUCTURED_POINTS
DIMENSIONS 181 181 1
ORIGIN 0.0 0.0 0.0
SPACING 0.05 0.05 1.0
POINT_DATA 32761
SCALARS Temperature float 1
LOOKUP_TABLE default
32.000000 32.000000 32.000000 32.000000 32.000000 32.000000 32.000000 32.000000
32.000000 32.000000 32.000000 32.000000 32.000000 32.000000 32.000000 32.000000
32.000000 32.000000 32.000000 32.000000 32.000000 32.000000 32.000000 32.000000
32.000000 32.000000 32.000000 32.000000 32.000000 32.000000 32.000000 32.000000
32.000000 32.000000 32.000000 32.000000 32.000000 32.000000 32.000000 32.000000
32.000000 32.000000 32.000000 32.000000 32.000000 32.000000 32.000000 32.000000
32.000000 32.000000 32.000000 32.000000 32.000000 32.000000 32.000000 32.000000
32.000000 32.000000 32.000000 32.000000 32.000000 32.000000 32.000000 32.000000
32.000000 32.000000 32.000000 32.000000 32.000000 32.000000 32.000000 32.000000
32.000000 32.000000 32.000000 32.000000 32.000000 32.000000 32.000000 32.000000
32.000000 32.000000 32.000000 32.000000 32.000000 32.000000 32.000000 32.000000
32.000000 32.000000 32.000000 32.000000 32.000000 32.000000 32.000000 32.000000
32.000000 32.000000 32.000000 32.000000 32.000000 32.000000 32.000000 32.000000
32.000000 32.000000 32.000000 32.000000 32.000000 32.000000 32.000000 32.000000
32.000000 32.000000 32.000000 32.000000 32.000000 32.000000 32.000000 32.000000
32.000000 32.000000 32.000000 32.000000 32.000000 32.000000 32.000000 32.000000
32.000000 32.000000 32.000000 32.000000 32.000000 32.000000 32.000000 32.000000
32.000000 32.000000 32.000000 32.000000 32.000000 32.000000 32.000000 32.000000
32.000000 32.000000 32.000000 32.000000 32.000000 32.000000 32.000000 32.000000
32.000000 32.000000 32.000000 32.000000 32.000000 32.000000 32.000000 32.000000
32.000000 32.000000 32.000000 32.000000 32.000000 32.000000 32.000000 32.000000
32.000000 32.000000 32.000000 32.000000 32.000000 32.000000 32.000000 32.000000
32.000000 32.000000 32.000000 32.000000 32.000000
32.377778 32.398491 32.419220 32.439982 32.460789 32.481660 32.502607 32.523650
32.544795 32.566066 32.587467 32.609020 32.630727 32.652610 32.674670 32.696927
32.719378 32.742046 32.764922 32.788027 32.811352 32.834916 32.858704 32.882737
32.906996 32.931498 32.956222 32.981185 33.006359 33.031761 33.057360 33.083169
33.109155 33.135329 33.161654 33.188138 33.214742 33.241472 33.268284 33.295184
33.322124 33.349109 33.376089 33.403064 33.429985 33.456850 33.483607 33.510253
33.536736 33.563051 33.589145 33.615014 33.640603 33.665908 33.690874 33.715498
33.739726 33.763554 33.786930 33.809850 33.832265 33.854171 33.875522 33.896314
33.916505 33.936090 33.955031 33.973325 33.990935 34.007862 34.024071 34.039562
34.054306 34.068303 34.081528 34.093982 34.105641 34.116508 34.126564 34.135810
34.144230 34.151827 34.158588 34.164514 34.169596 34.173835 34.177224 34.179765
34.181453 34.182290 34.182272 34.181402 34.179679 34.177104 34.173681 34.169408
34.164293 34.158334 34.151541 34.143912 34.135460 34.126183 34.116097 34.105201
34.093513 34.081032 34.067781 34.053759 34.038992 34.023479 34.007250 33.990305
33.972679 33.954371 33.935419 33.915825 33.895629 33.874834 33.853484 33.831582
33.809175 33.786267 33.762908 33.739102 33.714901 33.690309 33.665380 33.640119
33.614581 33.588769 33.562739 33.536495 33.510092 33.483534 33.456874 33.430115
33.403310 33.376461 33.349617 33.322780 33.295998 33.269269 33.242639 33.216105
33.189710 33.163448 33.137360 33.111437 33.085717 33.060188 33.034887 33.009798
32.984954 32.960338 32.935979 32.911858 32.888000 32.864386 32.841035 32.817927
32.795078 32.772467 32.750106 32.727973 32.706077 32.684394 32.662930 32.641661
32.620590 32.599693 32.578968 32.558393 32.537963 32.517655 32.497463 32.477365
32.457350 32.437399 32.417498 32.397630 32.377778
32.755556 32.796994 32.838466 32.879999 32.921629 32.963380 33.005292 33.047383
33.089695 33.132242 33.175066 33.218176 33.261615 33.305386 33.349533 33.394050
33.438983 33.484320 33.530104 33.576317 33.623002 33.670132 33.717747 33.765814
33.814372 33.863379 33.912871 33.962798 34.013193 34.064000 34.115246 34.166869
34.218892 34.271244 34.323946 34.376920 34.430183 34.483648 34.537330 34.591136
34.645076 34.699053 34.753071 34.807031 34.860932 34.914670 34.968244 35.021546
35.074571 35.127212 35.179459 35.231206 35.282442 35.333060 35.383049 35.432304
35.480815 35.528477 35.575281 35.621128 35.666007 35.709824 35.752572 35.794160
35.834583 35.873757 35.911676 35.948266 35.983522 36.017375 36.049824 36.080806
36.110321 36.138315 36.164789 36.189693 36.213033 36.234765 36.254893 36.273383
36.290237 36.305429 36.318961 36.330811 36.340983 36.349460 36.356244 36.361324
36.364703 36.366376 36.366341 36.364600 36.361153 36.356004 36.349152 36.340608
36.330370 36.318453 36.304856 36.289601 36.272683 36.254131 36.233943 36.212153
36.188757 36.163797 36.137272 36.109229 36.079667 36.048641 36.016153 35.982263
35.946975 35.910358 35.872416 35.833225 35.792791 35.751197 35.708451 35.664642
35.619779 35.573958 35.527187 35.479568 35.431111 35.381920 35.332006 35.281475
35.230340 35.178708 35.126589 35.074092 35.021226 34.968101 34.914721 34.861194
34.807525 34.753817 34.700071 34.646389 34.592767 34.539301 34.485985 34.432911
34.380066 34.327537 34.275307 34.223457 34.171966 34.120907 34.070254 34.020075
33.970339 33.921106 33.872343 33.824101 33.776343 33.729114 33.682373 33.636156
33.590423 33.545200 33.500445 33.456178 33.412355 33.368987 33.326031 33.283491
33.241323 33.199525 33.158052 33.116898 33.076017 33.035397 32.994994 32.954791
32.914745 32.874834 32.835019 32.795271 32.755556
33.133333 33.195523 33.257758 33.320092 33.382563 33.445228 33.508120 33.571298
33.634789 33.698654 33.762912 33.827626 33.892806 33.958516 34.024755 34.091591
34.159010 34.227080 34.295777 34.365166 34.435214 34.505983 34.577428 34.649609
34.722470 34.796066 34.870330 34.945312 35.020932 35.097238 35.174139 35.251674
35.329742 35.408377 35.487466 35.567038 35.646970 35.727284 35.807847 35.888676
35.969629 36.050716 36.131789 36.212851 36.293750 36.374482 36.454891 36.534969
36.614555 36.693639 36.772058 36.849799 36.926701 37.002746 37.077776 37.151773
37.224581 37.296184 37.366430 37.435303 37.502658 37.568481 37.632635 37.695107
37.755769 37.814611 37.871515 37.926473 37.979377 38.030222 38.078911 38.125442
38.169727 38.211768 38.251487 38.288888 38.323902 38.356536 38.386733 38.414497
38.439781 38.462592 38.482891 38.500684 38.515942 38.528669 38.538846 38.546474
38.551543 38.554053 38.554002 38.551388 38.546217 38.538487 38.528209 38.515381
38.500023 38.482131 38.461734 38.438827 38.413448 38.385592 38.355306 38.322584
38.287485 38.250003 38.210206 38.168091 38.123736 38.077140 38.028392 37.977492
37.924540 37.869541 37.812603 37.753735 37.693056 37.630576 37.566425 37.500615
37.433285 37.364449 37.294254 37.222715 37.149987 37.076086 37.001170 36.925255
36.848505 36.770935 36.692709 36.613840 36.534493 36.454680 36.374562 36.294148
36.213597 36.132912 36.052248 35.971603 35.891127 35.810810 35.730795 35.651068
35.571762 35.492857 35.414478 35.336596 35.259326 35.182635 35.106627 35.031261
34.956631 34.882690 34.809521 34.737071 34.665412 34.594487 34.524355 34.454955
34.386335 34.318431 34.251280 34.184815 34.119061 34.053950 33.989498 33.925634
33.862363 33.799616 33.737388 33.675611 33.614269 33.553297 33.492672 33.432329
33.372237 33.312336 33.252587 33.192935 33.133333
33.511111 33.594086 33.677127 33.760291 33.843650 33.927253 34.011178 34.095464
34.180194 34.265394 34.351153 34.437485 34.524479 34.612139 34.700555 34.789716
34.879712 34.970520 35.062228 35.154798 35.248316 35.342729 35.438120 35.534420
35.631706 35.729897 35.829063 35.929106 36.030091 36.131905 36.234605 36.338063
36.442329 36.547259 36.652895 36.759081 36.865848 36.973028 37.080644 37.188515
37.296656 37.404875 37.513181 37.621371 37.729447 37.837200 37.944624 38.051505
38.157832 38.263388 38.368156 38.471920 38.574660 38.676160 38.776398 38.875163
38.972431 39.067997 39.161840 39.253759 39.343736 39.431581 39.517276 39.600645
39.681672 39.760192 39.836194 39.909526 39.980181 40.048021 40.113042 40.175121
40.234258 40.290342 40.343377 40.393267 40.440018 40.483547 40.523862 40.560893
40.594649 40.625072 40.652170 40.675900 40.696268 40.713241 40.726825 40.736999
40.743765 40.747113 40.747044 40.743559 40.736657 40.726348 40.712628 40.695521
40.675020 40.651159 40.623930 40.593379 40.559498 40.522345 40.481910 40.438264
40.391401 40.341402 40.288263 40.232080 40.172851 40.110686 40.045585 39.977673
39.906954 39.833568 39.757520 39.678966 39.597917 39.514538 39.428845 39.341018
39.251074 39.159205 39.065430 38.969951 38.872789 38.774153 38.674065 38.572741
38.470202 38.366667 38.262155 38.156887 38.050880 37.944351 37.837315 37.729987
37.622374 37.514688 37.406927 37.299298 37.191791 37.084603 36.977719 36.871322
36.765390 36.660095 36.555405 36.451480 36.348278 36.245947 36.144435 36.043876
35.944211 35.845558 35.747850 35.651190 35.555505 35.460882 35.367242 35.274657
35.183043 35.092456 35.002808 34.914142 34.826366 34.739507 34.653474 34.568279
34.483829 34.400124 34.317071 34.234659 34.152795 34.071455 33.990552 33.910048
33.829862 33.749946 33.670222 33.590634 33.511111
33.888889 33.992700 34.096588 34.200641 34.304924 34.409532 34.514520 34.619989
34.725981 34.832603 34.939881 35.047925 35.156749 35.266464 35.377067 35.488669
35.601251 35.714924 35.829650 35.945538 36.062532 36.180737 36.300078 36.420654
36.542373 36.665327 36.789403 36.914687 37.041046 37.168558 37.297070 37.426651
37.557130 37.688564 37.820765 37.953781 38.087406 38.221675 38.356370 38.491513
38.626872 38.762459 38.898029 39.033587 39.168875 39.303888 39.438364 39.572289
39.705394 39.837660 39.968815 40.098836 40.227452 40.354634 40.480116 40.603869
40.725630 40.845370 40.962837 41.078003 41.190626 41.300681 41.407938 41.512377
41.613784 41.712142 41.807252 41.899103 41.987514 42.072479 42.153833 42.231576
42.305560 42.375789 42.442133 42.504601 42.563079 42.617577 42.668001 42.714360
42.756576 42.794660 42.828549 42.858253 42.883723 42.904969 42.921955 42.934689
42.943150 42.947341 42.947255 42.942894 42.934263 42.921360 42.904205 42.882792
42.857156 42.827288 42.793238 42.754994 42.712621 42.666109 42.615536 42.560893
42.502274 42.439672 42.373198 42.302846 42.228746 42.150896 42.069443 41.984388
41.895898 41.803978 41.708812 41.610412 41.508978 41.404525 41.297272 41.187240
41.074659 40.959555 40.842173 40.722540 40.600913 40.477321 40.352028 40.225065
40.096701 39.966966 39.836132 39.704225 39.571520 39.438036 39.304046 39.169563
39.034855 38.899927 38.765039 38.630188 38.495624 38.361334 38.227555 38.094264
37.961684 37.829781 37.698764 37.568585 37.439438 37.311266 37.184241 37.058298
36.933592 36.810044 36.687793 36.566752 36.447038 36.328557 36.211407 36.095486
35.980875 35.867466 35.755319 35.644323 35.534521 35.425797 35.318176 35.211543
35.105904 35.001143 34.897252 34.794117 34.691712 34.589927 34.488721 34.387990
34.287679 34.187688 34.087952 33.988378 33.888889
34.266667 34.391371 34.516174 34.641164 34.766448 34.892101 35.018241 35.144926
35.272282 35.400349 35.529260 35.659037 35.789816 35.921601 36.054528 36.188584
36.323902 36.460449 36.598356 36.737570 36.878217 37.020220 37.163702 37.308563
37.454918 37.602643 37.751847 37.902382 38.054346 38.207569 38.362136 38.517856
38.674802 38.832762 38.991794 39.151666 39.312424 39.473814 39.635870 39.798321
39.961188 40.124182 40.287313 40.450280 40.613080 40.775400 40.937228 41.098243
41.258426 41.417450 41.575288 41.731614 41.886394 42.039306 42.190313 42.339096
42.485620 42.629574 42.770923 42.909370 43.044881 43.177173 43.306219 43.431750
43.553745 43.671956 43.786365 43.896745 44.003084 44.105176 44.203017 44.296420
44.385387 44.469753 44.549525 44.624559 44.694865 44.760320 44.820936 44.876610
44.927356 44.973088 45.013821 45.049488 45.080100 45.105609 45.126023 45.141312
45.151481 45.156513 45.156411 45.151175 45.140803 45.125312 45.104695 45.078986
45.048176 45.012313 44.971387 44.925464 44.874531 44.818674 44.757879 44.692251
44.621777 44.546581 44.466655 44.382142 44.293036 44.199504 44.101545 43.999346
43.892911 43.782451 43.667975 43.549714 43.427685 43.302139 43.173099 43.040834
42.905372 42.767001 42.625753 42.481930 42.335566 42.186976 42.036196 41.883549
41.729070 41.573088 41.415635 41.257043 41.097340 40.936854 40.775608 40.613926
40.451822 40.289612 40.127299 39.965190 39.803276 39.641850 39.480892 39.320677
39.161173 39.002639 38.845027 38.688577 38.533228 38.379200 38.226417 38.075080
37.925099 37.776651 37.629637 37.484209 37.340260 37.197917 37.057064 36.917806
36.780019 36.643784 36.508972 36.375642 36.243660 36.113064 35.983716 35.855634
35.728678 35.602848 35.478004 35.354126 35.231078 35.108821 34.987223 34.866230
34.745715 34.625608 34.505791 34.386180 34.266667
34.644444 34.790116 34.935898 35.081910 35.228248 35.375046 35.522380 35.670394
35.819146 35.968787 36.119357 36.271009 36.423762 36.577774 36.733042 36.889722
37.047789 37.207397 37.368496 37.531238 37.695547 37.861568 38.029199 38.198580
38.369580 38.542330 38.716673 38.892727 39.070309 39.249526 39.430166 39.612324
39.795761 39.980557 40.166449 40.353500 40.541425 40.730271 40.919730 41.109833
41.300253 41.491006 41.681749 41.872482 42.062847 42.252834 42.442071 42.630538
42.817857 43.003997 43.188576 43.371558 43.552562 43.731545 43.908131 44.082276
44.253613 44.422097 44.587373 44.749400 44.907838 45.062650 45.213514 45.360399
45.503005 45.641308 45.775030 45.904155 46.028429 46.147843 46.262170 46.371406
46.475350 46.574005 46.667193 46.754923 46.837042 46.913563 46.984356 47.049435
47.108693 47.162146 47.209708 47.251392 47.287134 47.316945 47.340780 47.358647
47.370518 47.376399 47.376281 47.370163 47.358055 47.339953 47.315884 47.285840
47.249868 47.207956 47.160169 47.106495 47.047019 46.981727 46.910727 46.834004
46.751690 46.663772 46.570404 46.471579 46.367475 46.258089 46.143625 46.024085
45.899702 45.770482 45.636683 45.498321 45.355677 45.208775 45.057918 44.903138
44.744760 44.582820 44.417663 44.249331 44.078182 43.904262 43.727941 43.549266
43.368616 43.186034 43.001906 42.816269 42.629511 42.441661 42.253104 42.063862
41.874309 41.684458 41.494672 41.304951 41.115645 40.926737 40.738561 40.551086
40.364627 40.179135 39.994902 39.811867 39.630296 39.450112 39.271557 39.094539
38.919274 38.745654 38.573870 38.403802 38.235613 38.069170 37.904611 37.741793
37.580826 37.421560 37.264078 37.108224 36.954056 36.801413 36.650328 36.500638
36.352352 36.205308 36.059491 35.914741 35.771023 35.628178 35.486153 35.344797
35.204034 35.063723 34.923771 34.784048 34.644444
35.022222 35.188940 35.355792 35.522894 35.690393 35.858389 36.027040 36.196427
36.366715 36.537964 36.710348 36.883901 37.058802 37.235062 37.412860 37.592181
37.773204 37.955886 38.140403 38.326683 38.514899 38.704947 38.896992 39.090902
39.286831 39.484616 39.684400 39.885988 40.089509 40.294739 40.501791 40.710410
40.920693 41.132355 41.345477 41.559745 41.775221 41.991566 42.208823 42.426629
42.645009 42.863579 43.082346 43.300909 43.519258 43.736977 43.954045 44.170032
44.384906 44.598232 44.809967 45.019675 45.227307 45.432429 45.634988 45.834558
46.031086 46.224158 46.413721 46.599378 46.781082 46.958453 47.131451 47.299721
47.463230 47.621646 47.774947 47.922830 48.065278 48.202018 48.333044 48.458109
48.577216 48.690149 48.796914 48.897326 48.991396 49.078964 49.160048 49.234514
49.302378 49.363533 49.417996 49.465682 49.506607 49.540708 49.567998 49.588435
49.602027 49.608755 49.608620 49.601623 49.587762 49.567057 49.539501 49.505136
49.463949 49.416003 49.361284 49.299878 49.231766 49.157059 49.075739 48.987941
48.893648 48.793024 48.686053 48.572927 48.453637 48.328402 48.197220 48.060339
47.917765 47.769776 47.616387 47.457904 47.294352 47.126064 46.953073 46.775739
46.594103 46.408548 46.219121 46.026224 45.829910 45.630599 45.428342 45.223574
45.016345 44.807096 44.595875 44.383127 44.168892 43.953612 43.737322 43.520455
43.303033 43.085480 42.867806 42.650418 42.433310 42.216873 42.001081 41.786306
41.572504 41.360021 41.148795 40.939147 40.730997 40.524637 40.319969 40.117256
39.916383 39.717582 39.520723 39.326008 39.133291 38.942745 38.754211 38.567830
38.383435 38.201134 38.020752 37.842369 37.665803 37.491105 37.318089 37.146779
36.976987 36.808710 36.641761 36.476113 36.311582 36.148116 35.985538 35.823773
35.662653 35.502081 35.341900 35.181996 35.022222
35.400000 35.587861 35.775864 35.964168 36.152896 36.342220 36.532244 36.723150
36.915019 37.108042 37.302274 37.497914 37.694989 37.893702 38.094050 38.296238
38.500232 38.706234 38.914181 39.124268 39.336400 39.550765 39.767234 39.985985
40.206854 40.430007 40.655246 40.882721 41.112201 41.343818 41.577306 41.812781
42.049941 42.288884 42.529275 42.771190 43.014264 43.258554 43.503664 43.749631
43.996034 44.242888 44.489750 44.736617 44.983027 45.228959 45.473936 45.717924
45.960435 46.201424 46.440397 46.677300 46.911641 47.143359 47.371968 47.597405
47.819195 48.037276 48.251189 48.460876 48.665898 48.866203 49.061378 49.251380
49.435822 49.614670 49.787570 49.954497 50.115128 50.269451 50.417174 50.558296
50.692557 50.819964 50.940292 51.053553 51.159554 51.258312 51.349665 51.433633
51.510081 51.579031 51.640375 51.694134 51.740225 51.778665 51.809398 51.832434
51.847741 51.855325 51.855174 51.847289 51.831681 51.808345 51.777314 51.738578
51.692194 51.638145 51.576515 51.507283 51.430558 51.346320 51.254703 51.155687
51.049438 50.935938 50.815382 50.687757 50.553292 50.411980 50.264082 50.109601
49.948831 49.781784 49.608787 49.429864 49.245375 49.055353 48.860188 48.659924
48.454980 48.245407 48.031649 47.813764 47.592217 47.367070 47.138804 46.907482
46.673596 46.437209 46.198817 45.958476 45.716686 45.473493 45.229392 44.984418
44.739054 44.493323 44.247692 44.002167 43.757198 43.512770 43.269312 43.026787
42.785599 42.545691 42.307438 42.070762 41.836006 41.603072 41.372271 41.143484
40.916989 40.692649 40.470706 40.251007 40.033759 39.818793 39.606282 39.396044
39.188218 38.982609 38.779324 38.578160 38.379190 38.182206 37.987249 37.794108
37.602793 37.413093 37.224989 37.038272 36.852896 36.668656 36.485481 36.303175
36.121640 35.940692 35.760212 35.580028 35.400000
35.777778 35.986880 36.196151 36.405739 36.615830 36.826550 37.038100 37.250580
37.464203 37.679043 37.895320 38.113080 38.332547 38.553737 38.776876 39.001948
39.229177 39.458513 39.690177 39.924082 40.160442 40.399134 40.640363 40.883965
41.130135 41.378670 41.629748 41.883131 42.138976 42.397006 42.657360 42.919724
43.184213 43.450477 43.718608 43.988220 44.259384 44.531677 44.805149 45.079345
45.354291 45.629506 45.904995 46.180250 46.455258 46.729493 47.002920 47.275003
47.545691 47.814437 48.081182 48.345375 48.606947 48.865352 49.120518 49.371907
49.619446 49.862614 50.101339 50.335122 50.563898 50.787193 51.004950 51.216726
51.422474 51.621782 51.814619 52.000607 52.179726 52.351636 52.516327 52.673497
52.823149 52.965016 53.099109 53.225198 53.343302 53.453226 53.554990 53.648434
53.733582 53.810301 53.878616 53.938425 53.989748 54.032511 54.066729 54.092355
54.109398 54.117834 54.117667 54.108898 54.091523 54.065567 54.031019 53.987929
53.936282 53.876154 53.807522 53.730492 53.645038 53.551296 53.449239 53.339032
53.220654 53.094301 52.959955 52.817849 52.667971 52.510591 52.345706 52.173623
51.994350 51.808231 51.615286 51.415897 51.210096 50.998300 50.780554 50.557308
50.328617 50.094962 49.856408 49.613461 49.366191 49.115126 48.860341 48.602377
48.341310 48.077692 47.811593 47.543568 47.273681 47.002484 46.730029 46.456861
46.183015 45.909023 45.634903 45.361167 45.087813 44.815331 44.543694 44.273366
44.004297 43.736921 43.471163 43.207423 42.945604 42.686070 42.428700 42.173822
41.921293 41.671401 41.423986 41.179296 40.937151 40.697762 40.460933 40.226836
39.995261 39.766343 39.539861 39.315913 39.094269 38.874992 38.657847 38.442862
38.229801 38.018656 37.809195 37.601379 37.394978 37.189923 36.985992 36.783089
36.581002 36.379609 36.178710 35.978161 35.777778
36.155556 36.386016 36.616653 36.847662 37.079197 37.311472 37.544613 37.778848
38.014277 38.251138 38.489499 38.729606 38.971494 39.215414 39.461366 39.709600
39.960080 40.213054 40.468447 40.726500 40.987099 41.250475 41.516474 41.785313
42.056795 42.331124 42.608060 42.887786 43.170020 43.454927 43.742179 44.031919
44.323779 44.617875 44.913799 45.211642 45.510957 45.811807 46.113712 46.416708
46.720280 47.024441 47.328647 47.632886 47.936591 48.239728 48.541712 48.842490
49.141463 49.438565 49.733189 50.025259 50.314170 50.599836 50.881659 51.159554
51.432935 51.701718 51.965339 52.223718 52.476318 52.723069 52.963464 53.197444
53.424539 53.644702 53.857502 54.062906 54.260523 54.450336 54.631993 54.805491
54.970519 55.127087 55.274924 55.414047 55.544227 55.665487 55.777633 55.880694
55.974510 56.059110 56.134368 56.200312 56.256844 56.303988 56.341676 56.369926
56.388697 56.397997 56.397815 56.388151 56.369017 56.340406 56.302358 56.254857
56.197971 56.131677 56.056074 55.971133 55.876983 55.773596 55.661131 55.539561
55.409082 55.269670 55.121558 54.964728 54.799453 54.625726 54.443859 54.253856
54.056071 53.850523 53.637607 53.417356 53.190205 52.956202 52.715822 52.469124
52.216620 51.958381 51.694951 51.426410 51.153327 50.875788 50.594385 50.309205
50.020852 49.729413 49.435501 49.139192 48.841102 48.541298 48.240387 47.938421
47.635997 47.333148 47.030450 46.727916 46.426099 46.124987 45.825105 45.526415
45.229410 44.934025 44.640718 44.349397 44.060481 43.773853 43.489891 43.208451
42.929872 42.653986 42.381089 42.110991 41.843945 41.579743 41.318594 41.060274
40.804951 40.552387 40.302707 40.055663 39.811341 39.569486 39.330144 39.093056
38.858230 38.625409 38.394563 38.165438 37.937973 37.711918 37.487179 37.263517
37.040811 36.818831 36.597431 36.376396 36.155556
36.533333 36.785268 37.037408 37.289935 37.543074 37.796980 38.051897 38.307949
38.565393 38.824322 39.085001 39.347491 39.612062 39.878738 40.147791 40.419206
40.693254 40.969879 41.249347 41.531559 41.816772 42.104842 42.396015 42.690102
42.987333 43.287471 43.590727 43.896819 44.205936 44.517749 44.832421 45.149577
45.469356 45.791335 46.115625 46.441761 46.769824 47.099307 47.430262 47.762145
48.094978 48.428183 48.761755 49.095086 49.428146 49.760303 50.091504 50.421099
50.749017 51.074598 51.397756 51.717827 52.034715 52.347761 52.656863 52.961375
53.261194 53.555693 53.844775 54.127837 54.404793 54.675072 54.938598 55.194838
55.443732 55.684787 55.917959 56.142800 56.359282 56.567002 56.765949 56.955764
57.136452 57.307699 57.469521 57.621649 57.764108 57.896670 58.019366 58.132008
58.234628 58.327075 58.409382 58.481429 58.543247 58.594750 58.635958 58.666817
58.687341 58.697502 58.697304 58.686750 58.665833 58.634583 58.592985 58.541096
58.478895 58.406468 58.323787 58.230972 58.127990 58.014995 57.891953 57.759056
57.616273 57.463832 57.301711 57.130181 56.949227 56.759163 56.559989 56.352063
56.135400 55.910405 55.677106 55.435958 55.187003 54.930740 54.667230 54.397012
54.120161 53.837254 53.548380 53.254147 52.954652 52.650532 52.341887 52.029374
51.713094 51.393714 51.071331 50.746619 50.419662 50.091132 49.761100 49.430226
49.098562 48.766751 48.434822 48.103396 47.772477 47.442653 47.113903 46.786783
46.461239 46.137790 45.816355 45.497409 45.180842 44.867088 44.556005 44.247984
43.942855 43.640962 43.342111 43.046599 42.754210 42.465193 42.179313 41.896772
41.617318 41.341108 41.067878 40.797737 40.530413 40.265974 40.004139 39.744934
39.488077 39.233555 38.981085 38.730617 38.481874 38.234770 37.989035 37.744551
37.501060 37.258414 37.016370 36.774751 36.533333
36.911111 37.184655 37.458411 37.732614 38.007449 38.283172 38.559938 38.838017
39.117533 39.398768 39.681810 39.966950 40.254235 40.543963 40.836140 41.131062
41.428694 41.729327 42.032881 42.339640 42.649477 42.962662 43.279021 43.598809
43.921801 44.248234 44.577831 44.910807 45.246835 45.586103 45.928233 46.273386
46.621133 46.971605 47.324324 47.679390 48.036277 48.395054 48.755151 49.116603
49.478802 49.841751 50.204806 50.567941 50.930483 51.292379 51.652932 52.012067
52.369070 52.723848 53.075680 53.424459 53.769462 54.110577 54.447089 54.778882
55.105260 55.426110 55.740760 56.049105 56.350506 56.644871 56.931600 57.210614
57.481359 57.743774 57.997351 58.242049 58.477409 58.703409 58.919641 59.126100
59.322428 59.508635 59.684413 59.849784 60.004485 60.148548 60.281752 60.404136
60.515520 60.615941 60.705258 60.783506 60.850579 60.906507 60.951214 60.984722
61.006987 61.018021 61.017809 61.006352 60.983664 60.949735 60.904610 60.848267
60.780783 60.702127 60.612408 60.511591 60.399819 60.277055 60.143480 59.999056
59.844007 59.678300 59.502202 59.315689 59.119075 58.912349 58.695874 58.469652
58.234099 57.989235 57.735524 57.473008 57.202201 56.923162 56.636453 56.342154
56.040869 55.732692 55.418270 55.097708 54.771684 54.440314 54.104300 53.763762
53.419419 53.071388 52.720399 52.366561 52.010603 51.652621 51.293338 50.932829
50.571804 50.210313 49.849044 49.488021 49.127900 48.768678 48.410976 48.054758
47.700605 47.348450 46.998830 46.651644 46.307385 45.965917 45.627685 45.292524
44.960827 44.632401 44.307588 43.986169 43.668434 43.354141 43.043530 42.736338
42.432756 42.132504 41.835723 41.542122 41.251793 40.964436 40.680098 40.398474
40.119568 39.843072 39.568948 39.296893 39.026830 38.758460 38.491671 38.226175
37.961825 37.698348 37.435565 37.173222 36.911111
37.288889 37.584173 37.879700 38.175687 38.472401 38.770027 39.068851 39.369027
39.670853 39.974447 40.280120 40.587947 40.898247 41.211054 41.526686 41.845134
42.166715 42.491369 42.819409 43.150725 43.485618 43.823928 44.165941 44.511443
44.860700 45.213445 45.569922 45.929808 46.293320 46.660079 47.030275 47.403472
47.779829 48.158856 48.540676 48.924749 49.311162 49.699325 50.089290 50.480420
50.872732 51.265549 51.658852 52.051928 52.444729 52.836512 53.227200 53.616029
54.002899 54.387032 54.768312 55.145955 55.519833 55.889169 56.253826 56.613044
56.966686 57.314015 57.654902 57.988641 58.315115 58.633658 58.944169 59.246027
59.539153 59.822974 60.097434 60.362013 60.616677 60.860961 61.094852 61.317940
61.530232 61.731371 61.921380 62.099954 62.267128 62.422645 62.566548 62.698626
62.818924 62.927274 63.023718 63.108128 63.180541 63.240863 63.289123 63.325261
63.349296 63.361197 63.360970 63.348618 63.324132 63.287545 63.238838 63.178073
63.105220 63.020376 62.923503 62.814731 62.694018 62.561534 62.417235 62.261333
62.093787 61.914855 61.724504 61.523040 61.310442 61.087070 60.852918 60.608399
60.353529 60.088774 59.814171 59.530244 59.237051 58.935170 58.624681 58.306212
57.979863 57.646309 57.305666 56.958650 56.605389 56.246629 55.882508 55.513795
55.140628 54.763793 54.383421 54.000302 53.614557 53.226973 52.837651 52.447367
52.056197 51.664897 51.273516 50.882778 50.492703 50.103980 49.716593 49.331192
48.947723 48.566792 48.188309 47.812830 47.440229 47.071010 46.705012 46.342686
45.983839 45.628866 45.277543 44.930210 44.586617 44.247048 43.911230 43.579391
43.251238 42.926947 42.606209 42.289146 41.975439 41.665160 41.357980 41.053924
40.752661 40.454168 40.158115 39.864437 39.572808 39.283122 38.995062 38.708485
38.423087 38.138690 37.855007 37.571828 37.288889
37.666667 37.983841 38.301264 38.619213 38.937906 39.257642 39.578605 39.901112
40.225312 40.551532 40.879881 41.210697 41.544044 41.880265 42.219375 42.561718
42.907262 43.256343 43.608878 43.965194 44.325152 44.689067 45.056743 45.428477
45.804013 46.183628 46.567006 46.954395 47.345423 47.740306 48.138611 48.540522
48.945547 49.353833 49.764830 50.178647 50.594679 51.012996 51.432940 51.854541
52.277096 52.700595 53.124291 53.548139 53.971358 54.393868 54.814860 55.234228
55.651141 56.065470 56.476375 56.883711 57.286638 57.685001 58.077971 58.465390
58.846450 59.221000 59.588260 59.948091 60.299752 60.643121 60.977505 61.302803
61.618374 61.924142 62.219524 62.504467 62.778448 63.041441 63.292983 63.533070
63.761299 63.977686 64.181886 64.373929 64.553525 64.720717 64.875264 65.017214
65.146372 65.262789 65.366311 65.456986 65.534698 65.599487 65.651273 65.690083
65.715872 65.728654 65.728415 65.715153 65.688886 65.649598 65.597339 65.532080
65.453901 65.362765 65.258788 65.141922 65.012324 64.869943 64.714977 64.547376
64.367386 64.174962 63.970400 63.753667 63.525115 63.284726 63.032908 62.769665
62.495465 62.210336 61.914805 61.608925 61.293285 60.967963 60.633606 60.290316
59.938792 59.579159 59.212165 58.837949 58.457301 58.070371 57.677979 57.280282
56.878121 56.471649 56.061720 55.648477 55.232773 54.814738 54.395214 53.974307
53.552841 53.130894 52.709262 52.287989 51.867838 51.448814 51.031639 50.616281
50.203411 49.792960 49.385547 48.981062 48.580071 48.182423 47.788626 47.398495
47.012477 46.630353 46.252511 45.878698 45.509246 45.143873 44.782851 44.425875
44.073157 43.724376 43.379685 43.038747 42.701662 42.368082 42.038054 41.711223
41.387586 41.066788 40.748776 40.433199 40.119960 39.808713 39.499321 39.191449
38.884922 38.579421 38.274734 37.970564 37.666667
38.044444 38.383651 38.723142 39.063169 39.404042 39.745980 40.089315 40.434227
40.781063 41.129964 41.481289 41.835132 42.191860 42.551520 42.914479 43.280734
43.650650 44.024168 44.401646 44.782968 45.168480 45.558006 45.951875 46.349850
46.752236 47.158735 47.569626 47.984546 48.403742 48.826787 49.253895 49.684575
50.119000 50.556617 50.997559 51.441212 51.887666 52.336248 52.787006 53.239211
53.692868 54.147201 54.602172 55.056962 55.511495 55.964917 56.417119 56.867218
57.315079 57.759802 58.201228 58.638455 59.071310 59.498893 59.921026 60.336828
60.746122 61.148056 61.542461 61.928524 62.306094 62.674404 63.033327 63.382151
63.720773 64.048545 64.365391 64.670726 64.964506 65.246211 65.515823 65.772887
66.017413 66.249008 66.467702 66.673162 66.865432 67.044238 67.209633 67.361391