# vtk DataFile Version 3.0
Steady-state temperature (Jacobi)
ASCII
DATASET STRUCTURED_POINTS
DIMENSIONS 181 181 1
ORIGIN 0.0 0.0 0.0
SPACING 0.05 0.05 1.0
POINT_DATA 32761
SCALARS Temperature float 1
LOOKUP_TABLE default
32.000000 32.000000 32.000000 32.000000 32.000000 32.000000 32.000000 32.000000
32.000000 32.000000 32.000000 32.000000 32.000000 32.000000 32.000000 32.000000
32.000000 32.000000 32.000000 32.000000 32.000000 32.000000 32.000000 32.000000
32.000000 32.000000 32.000000 32.000000 32.000000 32.000000 32.000000 32.000000
32.000000 32.000000 32.000000 32.000000 32.000000 32.000000 32.000000 32.000000
32.000000 32.000000 32.000000 32.000000 32.000000 32.000000 32.000000 32.000000
32.000000 32.000000 32.000000 32.000000 32.000000 32.000000 32.000000 32.000000
32.000000 32.000000 32.000000 32.000000 32.000000 32.000000 32.000000 32.000000
32.000000 32.000000 32.000000 32.000000 32.000000 32.000000 32.000000 32.000000
32.000000 32.000000 32.000000 32.000000 32.000000 32.000000 32.000000 32.000000
32.000000 32.000000 32.000000 32.000000 32.000000 32.000000 32.000000 32.000000
32.000000 32.000000 32.000000 32.000000 32.000000 32.000000 32.000000 32.000000
32.000000 32.000000 32.000000 32.000000 32.000000 32.000000 32.000000 32.000000
32.000000 32.000000 32.000000 32.000000 32.000000 32.000000 32.000000 32.000000
32.000000 32.000000 32.000000 32.000000 32.000000 32.000000 32.000000 32.000000
32.000000 32.000000 32.000000 32.000000 32.000000 32.000000 32.000000 32.000000
32.000000 32.000000 32.000000 32.000000 32.000000 32.000000 32.000000 32.000000
32.000000 32.000000 32.000000 32.000000 32.000000 32.000000 32.000000 32.000000
32.000000 32.000000 32.000000 32.000000 32.000000 32.000000 32.000000 32.000000
32.000000 32.000000 32.000000 32.000000 32.000000 32.000000 32.000000 32.000000
32.000000 32.000000 32.000000 32.000000 32.000000 32.000000 32.000000 32.000000
32.000000 32.000000 32.000000 32.000000 32.000000 32.000000 32.000000 32.000000
32.000000 32.000000 32.000000 32.000000 32.000000
32.377778 32.374312 32.370878 32.367513 32.364244 32.361113 32.358140 32.355373
32.352824 32.350546 32.348544 32.346876 32.345538 32.344592 32.344028 32.343910
32.344220 32.345026 32.346299 32.348112 32.350428 32.353320 32.356742 32.360772
32.365353 32.370563 32.376337 32.382756 32.389744 32.397382 32.405587 32.414438
32.423844 32.433886 32.444462 32.455653 32.467348 32.479630 32.492378 32.505675
32.519393 32.533614 32.548204 32.563242 32.578591 32.594328 32.610311 32.626617
32.643100 32.659835 32.676675 32.693693 32.710741 32.727894 32.745000 32.762134
32.779147 32.796113 32.812885 32.829535 32.845923 32.862117 32.877982 32.893587
32.908802 32.923695 32.938142 32.952208 32.965779 32.978918 32.991519 33.003641
33.015187 33.026214 33.036634 33.046499 33.055732 33.064380 33.072376 33.079761
33.086479 33.092564 33.097972 33.102731 33.106804 33.110214 33.112936 33.114983
33.116341 33.117018 33.117007 33.116309 33.114929 33.112859 33.110115 33.106681
33.102583 33.097799 33.092365 33.086251 33.079504 33.072089 33.064060 33.055378
33.046109 33.036205 33.025744 33.014674 33.003081 32.990910 32.978257 32.965063
32.951433 32.937305 32.922793 32.907831 32.892543 32.876862 32.860915 32.844636
32.828160 32.811416 32.794546 32.777478 32.760357 32.743112 32.725890 32.708618
32.691445 32.674298 32.657325 32.640452 32.623828 32.607377 32.591245 32.575356
32.559851 32.544654 32.529904 32.515520 32.501637 32.488174 32.475258 32.462809
32.450947 32.439589 32.428849 32.418643 32.409077 32.400068 32.391711 32.383925
32.376795 32.370241 32.364339 32.359009 32.354319 32.350191 32.346681 32.343714
32.341338 32.339478 32.338175 32.337355 32.337051 32.337192 32.337800 32.338811
32.340237 32.342017 32.344155 32.346595 32.349333 32.352316 32.355534 32.358938
32.362512 32.366212 32.370014 32.373879 32.377778
32.755556 32.748644 32.741803 32.735089 32.728584 32.722332 32.716425 32.710896
32.705845 32.701289 32.697340 32.693999 32.691386 32.689486 32.688429 32.688182
32.688880 32.690476 32.693111 32.696719 32.701446 32.707210 32.714161 32.722197
32.731473 32.741868 32.753541 32.766352 32.780461 32.795710 32.812260 32.829934
32.848896 32.868950 32.890259 32.912611 32.936167 32.960699 32.986368 33.012930
33.040546 33.068955 33.098318 33.128364 33.159249 33.190691 33.222848 33.255428
33.288584 33.322022 33.355893 33.389898 33.424185 33.458456 33.492857 33.527091
33.561302 33.595199 33.628923 33.662188 33.695135 33.727488 33.759384 33.790559
33.821146 33.850894 33.879935 33.908032 33.935312 33.961555 33.986882 34.011092
34.034299 34.056320 34.077262 34.096962 34.115518 34.132786 34.148855 34.163601
34.177101 34.189252 34.200119 34.209620 34.217805 34.224613 34.230082 34.234170
34.236899 34.238249 34.238227 34.236834 34.234061 34.229928 34.224414 34.217559
34.209325 34.199773 34.188853 34.176647 34.163088 34.148281 34.132147 34.114810
34.096181 34.076404 34.055380 34.033272 34.009972 33.985664 33.960233 33.933880
33.906483 33.878262 33.849091 33.819204 33.788471 33.757143 33.725085 33.692563
33.659437 33.625984 33.592064 33.557963 33.523538 33.489082 33.454449 33.419938
33.385402 33.351139 33.317002 33.283290 33.249850 33.216980 33.184526 33.152778
33.121582 33.091221 33.061536 33.032800 33.004855 32.977961 32.951957 32.927091
32.903199 32.880515 32.858876 32.838496 32.819212 32.801224 32.784368 32.768824
32.754431 32.741351 32.729422 32.718789 32.709294 32.701061 32.693936 32.688023
32.683174 32.679474 32.676779 32.675157 32.674468 32.674763 32.675909 32.677941
32.680730 32.684296 32.688517 32.693399 32.698827 32.704791 32.711186 32.717989
32.725103 32.732490 32.740066 32.747779 32.755556
33.133333 33.123024 33.112811 33.102807 33.093091 33.083791 33.074966 33.066761
33.059212 33.052480 33.046579 33.041682 33.037781 33.035062 33.033490 33.033263
33.034323 33.036876 33.040839 33.046426 33.053527 33.062364 33.072799 33.085062
33.098986 33.114805 33.132325 33.151784 33.172959 33.196092 33.220931 33.247720
33.276179 33.306554 33.338536 33.372371 33.407727 33.444848 33.483376 33.523554
33.565003 33.607964 33.652037 33.697460 33.743818 33.791344 33.839609 33.888845
33.938612 33.989137 34.039974 34.091347 34.142807 34.194576 34.246205 34.297912
34.349253 34.400444 34.451051 34.501284 34.550721 34.599571 34.647426 34.694491
34.740379 34.785287 34.828851 34.871262 34.912180 34.951789 34.989774 35.026311
35.061112 35.094343 35.125746 35.155472 35.183293 35.209348 35.233438 35.255686
35.275924 35.294256 35.310546 35.324878 35.337147 35.347419 35.355615 35.361782
35.365872 35.367909 35.367877 35.365775 35.361618 35.355385 35.347120 35.336778
35.324436 35.310027 35.293659 35.275243 35.254918 35.232578 35.208390 35.182232
35.154302 35.124459 35.092934 35.059572 35.024632 34.987948 34.949807 34.910033
34.868940 34.826343 34.782583 34.737467 34.691361 34.644065 34.595967 34.546862
34.497157 34.446644 34.395744 34.344245 34.292584 34.240543 34.188567 34.136438
34.084604 34.032844 33.981607 33.930670 33.880480 33.830808 33.782097 33.734114
33.687290 33.641392 33.596837 33.553387 33.511443 33.470767 33.431738 33.394115
33.358257 33.323922 33.291445 33.260581 33.231641 33.204381 33.179085 33.155508
33.133908 33.114044 33.096142 33.079967 33.065716 33.053157 33.042462 33.033402
33.026120 33.020395 33.016344 33.013751 33.012708 33.013008 33.014716 33.017633
33.021802 33.027036 33.033350 33.040569 33.048689 33.057545 33.067110 33.077235
33.087872 33.098885 33.110207 33.121718 33.133333
33.511111 33.497466 33.483961 33.470713 33.457884 33.445565 33.433941 33.423074
33.413169 33.404261 33.396572 33.390107 33.385105 33.381539 33.379666 33.379423
33.381082 33.384546 33.390100 33.397612 33.407375 33.419224 33.433460 33.449881
33.468796 33.489964 33.513701 33.539729 33.568369 33.599303 33.632855 33.668672
33.707078 33.747682 33.790812 33.836040 33.883692 33.933308 33.985212 34.038913
34.094731 34.152149 34.211482 34.272188 34.334580 34.398094 34.463039 34.528835
34.595786 34.663301 34.731679 34.800323 34.869529 34.938696 35.008117 35.077196
35.146220 35.214604 35.282629 35.349725 35.416170 35.481411 35.545721 35.608571
35.670228 35.730189 35.788715 35.845335 35.900299 35.953170 36.004188 36.052952
36.099688 36.144033 36.186200 36.225863 36.263217 36.297978 36.330319 36.359997
36.387164 36.411616 36.433482 36.452598 36.469066 36.482764 36.493765 36.501989
36.507479 36.510195 36.510152 36.507349 36.501771 36.493458 36.482365 36.468574
36.452008 36.432791 36.410820 36.386257 36.358973 36.329172 36.296701 36.261803
36.224303 36.184486 36.142155 36.097636 36.050714 36.001755 35.950529 35.897437
35.842239 35.785372 35.726584 35.666346 35.604398 35.541241 35.476607 35.411027
35.344225 35.276755 35.208337 35.139545 35.070093 35.000570 34.930686 34.861038
34.791334 34.722175 34.653263 34.585199 34.517683 34.451307 34.385766 34.321643
34.258630 34.197291 34.137314 34.079246 34.022768 33.968404 33.915832 33.865547
33.817226 33.771332 33.727542 33.686286 33.647239 33.610796 33.576633 33.545110
33.515904 33.489338 33.465091 33.443450 33.424099 33.407287 33.392704 33.380561
33.370556 33.362865 33.357193 33.353680 33.352045 33.352389 33.354444 33.358280
33.363639 33.370560 33.378800 33.388366 33.399033 33.410776 33.423388 33.436817
33.450873 33.465479 33.480463 33.495724 33.511111
33.888889 33.872002 33.855276 33.838903 33.823010 33.807818 33.793423 33.780068
33.767816 33.756934 33.747448 33.739647 33.733519 33.729373 33.727156 33.727197
33.729399 33.734108 33.741185 33.750990 33.763338 33.778601 33.796551 33.817569
33.841379 33.868372 33.898224 33.931334 33.967328 34.006611 34.048762 34.094189
34.142424 34.193876 34.248032 34.305300 34.365125 34.427913 34.493068 34.560993
34.631055 34.703653 34.778120 34.854851 34.933151 35.013408 35.094905 35.178025
35.262033 35.347305 35.433096 35.519776 35.606596 35.693920 35.781000 35.868196
35.954768 36.041070 36.126378 36.211041 36.294353 36.376660 36.457283 36.536560
36.613843 36.689464 36.762810 36.834204 36.903074 36.969729 37.033643 37.095110
37.153650 37.209539 37.262345 37.312326 37.359098 37.402895 37.443384 37.480773
37.514780 37.545582 37.572949 37.597027 37.617637 37.634890 37.648658 37.659015
37.665886 37.669307 37.669253 37.665723 37.658743 37.648274 37.634393 37.617023
37.596291 37.572087 37.544587 37.513647 37.479494 37.441952 37.401300 37.357332
37.310377 37.260204 37.207192 37.151086 37.092315 37.030603 36.966429 36.899498
36.830336 36.758633 36.684959 36.608994 36.531346 36.451685 36.370658 36.287926
36.204167 36.119037 36.033240 35.946426 35.859320 35.771568 35.683910 35.595984
35.508542 35.421217 35.334761 35.248802 35.164088 35.080243 34.998002 34.916983
34.837907 34.760385 34.685114 34.611702 34.540817 34.472062 34.406073 34.342449
34.281789 34.223689 34.168709 34.116444 34.067409 34.021199 33.978287 33.938268
33.901568 33.867786 33.837301 33.809717 33.785366 33.763858 33.745480 33.729848
33.717204 33.707175 33.699957 33.695188 33.693021 33.693110 33.695561 33.700046
33.706630 33.715001 33.725187 33.736893 33.750109 33.764562 33.780205 33.796788
33.814230 33.832303 33.850895 33.869805 33.888889
34.266667 34.246641 34.226827 34.207402 34.188611 34.170593 34.153625 34.137804
34.123439 34.110583 34.099572 34.090414 34.083470 34.078702 34.076493 34.076756
34.079897 34.085773 34.094811 34.106817 34.122231 34.140805 34.162995 34.188495
34.217772 34.250465 34.287049 34.327106 34.371118 34.418610 34.470067 34.524958
34.583771 34.645920 34.711892 34.781047 34.853873 34.929678 35.008946 35.090939
35.176136 35.263757 35.354276 35.446873 35.542018 35.638860 35.737860 35.838145
35.940167 36.043036 36.147199 36.251753 36.357140 36.462457 36.568136 36.673282
36.778322 36.882374 36.985858 37.087914 37.188956 37.288154 37.385913 37.481439
37.575129 37.666230 37.755128 37.841118 37.924574 38.004839 38.082273 38.156274
38.227182 38.294454 38.358406 38.418553 38.475187 38.527883 38.576902 38.621880
38.663045 38.700093 38.733218 38.762175 38.787119 38.807866 38.824527 38.836981
38.845296 38.849409 38.849345 38.845101 38.836655 38.824067 38.807269 38.786382
38.761293 38.732184 38.698901 38.661686 38.620347 38.575185 38.525971 38.473070
38.416217 38.355838 38.291640 38.224108 38.152922 38.078627 38.000881 37.920285
37.836479 37.750118 37.660827 37.569312 37.475185 37.379198 37.280954 37.181247
37.079669 36.977052 36.872980 36.768315 36.662634 36.556821 36.450447 36.344410
36.238276 36.132948 36.027987 35.924295 35.821425 35.720270 35.620377 35.522622
35.426546 35.333000 35.241518 35.152920 35.066735 34.983747 34.903479 34.826672
34.752845 34.682693 34.615732 34.552609 34.492836 34.437008 34.384639 34.336267
34.291409 34.250548 34.213205 34.179808 34.149883 34.123801 34.101097 34.082088
34.066320 34.054053 34.044846 34.038908 34.035812 34.035714 34.038206 34.043392
34.050886 34.060743 34.072597 34.086457 34.101983 34.119139 34.137609 34.157316
34.177971 34.199458 34.221519 34.243997 34.266667
34.644444 34.621420 34.598623 34.576324 34.554707 34.534080 34.514581 34.496554
34.480088 34.465560 34.453009 34.442842 34.435043 34.430049 34.427787 34.428719
34.432714 34.440256 34.451153 34.465910 34.484272 34.506761 34.533057 34.563698
34.598296 34.637402 34.680562 34.728335 34.780199 34.836720 34.897311 34.962540
35.031754 35.105523 35.183130 35.265142 35.350784 35.440620 35.533814 35.630927
35.731072 35.834802 35.941183 36.050760 36.162561 36.277121 36.393434 36.512030
36.631876 36.753493 36.875834 36.999412 37.123171 37.247617 37.371698 37.495911
37.619218 37.742108 37.863563 37.984067 38.102630 38.219729 38.334413 38.447149
38.557032 38.664519 38.768756 38.870187 38.968017 39.062672 39.153419 39.240666
39.323745 39.403039 39.477949 39.548831 39.615153 39.677241 39.734633 39.787618
39.835805 39.879443 39.918212 39.952315 39.981505 40.005936 40.025432 40.040098
40.049827 40.054671 40.054596 40.049600 40.039718 40.024897 40.005242 39.980646
39.951287 39.917007 39.878053 39.834222 39.785831 39.732632 39.675012 39.612685
39.546108 39.474956 39.399759 39.320161 39.236759 39.149169 39.058058 38.963017
38.864779 38.762915 38.658220 38.550250 38.439857 38.326583 38.211333 38.093639
37.974452 37.853293 37.731153 37.607547 37.483494 37.358501 37.233611 37.108324
36.983694 36.859214 36.735942 36.613363 36.492529 36.372918 36.255564 36.139939
36.027053 35.916369 35.808865 35.703996 35.602700 35.504426 35.410066 35.319062
35.232254 35.149079 35.070322 34.995417 34.925087 34.858765 34.797114 34.739566
34.686719 34.638010 34.593971 34.554045 34.518696 34.487379 34.460491 34.437496
34.418731 34.403671 34.392588 34.384976 34.381046 34.380309 34.382917 34.388403
34.396860 34.407847 34.421401 34.437107 34.454948 34.474540 34.495816 34.518422
34.542242 34.566956 34.592404 34.618302 34.644444
35.022222 34.996341 34.970746 34.945676 34.921462 34.898290 34.876537 34.856332
34.838092 34.821890 34.808178 34.796969 34.788749 34.783469 34.781644 34.783158
34.788557 34.797656 34.811022 34.828401 34.850383 34.876639 34.907777 34.943395
34.984114 35.029455 35.080054 35.135353 35.195996 35.261350 35.332062 35.407424
35.488086 35.573265 35.663610 35.758267 35.857882 35.961531 36.069857 36.181873
36.298212 36.417833 36.541359 36.667698 36.797464 36.929523 37.064480 37.201166
37.340177 37.480321 37.622183 37.764558 37.908024 38.051371 38.195169 38.338219
38.481080 38.622572 38.763249 38.901959 39.039247 39.174003 39.306762 39.436461
39.563625 39.687249 39.807844 39.924468 40.037617 40.146418 40.251346 40.351601
40.447636 40.538727 40.625296 40.706700 40.783326 40.854612 40.920906 40.981726
41.037378 41.087458 41.132225 41.171356 41.205058 41.233088 41.255595 41.272420
41.283651 41.289209 41.289123 41.283392 41.271986 41.254984 41.232295 41.204077
41.170183 41.130849 41.085872 41.035571 40.979687 40.918622 40.852068 40.780508
40.703591 40.621879 40.534982 40.443544 40.347140 40.246493 40.141149 40.031908
39.918292 39.801173 39.680055 39.555879 39.428132 39.297818 39.164414 39.028978
38.890976 38.751518 38.610059 38.467748 38.324033 38.180094 38.035371 37.891063
37.746601 37.603196 37.460269 37.319028 37.178887 37.041041 36.904895 36.771621
36.640613 36.513011 36.388201 36.267281 36.149626 36.036286 35.926628 35.821645
35.720698 35.624717 35.533058 35.446583 35.364647 35.288040 35.216117 35.149596
35.087832 35.031469 34.979867 34.933595 34.892022 34.855639 34.823828 34.797005
34.774565 34.756852 34.743278 34.734115 34.728794 34.727520 34.729745 34.735608
34.744587 34.756756 34.771622 34.789195 34.809018 34.831039 34.854835 34.880300
34.907045 34.934912 34.963554 34.992758 35.022222
35.400000 35.371447 35.343192 35.315585 35.288868 35.263440 35.239484 35.217447
35.197446 35.179971 35.165076 35.153288 35.144592 35.139552 35.138078 35.140769
35.147458 35.158774 35.174472 35.195204 35.220646 35.251472 35.287273 35.328743
35.375386 35.427912 35.485739 35.549586 35.618785 35.694064 35.774667 35.861324
35.953196 36.051014 36.153856 36.262448 36.375790 36.494603 36.617813 36.746132
36.878419 37.015375 37.155798 37.300380 37.447864 37.598931 37.752282 37.908586
38.066511 38.226716 38.387846 38.550550 38.713465 38.877229 39.040484 39.203857
39.366007 39.527553 39.687180 39.845499 40.001236 40.154993 40.305545 40.453484
40.597645 40.738608 40.875277 41.008215 41.136401 41.260380 41.379213 41.493418
41.602142 41.705875 41.803851 41.896526 41.983223 42.064357 42.139343 42.208549
42.271481 42.328455 42.379067 42.423578 42.461674 42.493553 42.518992 42.538126
42.550819 42.557140 42.557044 42.550528 42.537639 42.518306 42.492662 42.460573
42.422260 42.377522 42.326673 42.269451 42.206258 42.136777 42.061500 41.980057
41.893033 41.800012 41.701668 41.597543 41.488404 41.373759 41.254459 41.129984
41.001272 40.867779 40.730522 40.588938 40.444121 40.295491 40.144212 39.989691
39.833151 39.673990 39.513483 39.351017 39.187907 39.023533 38.859237 38.694393
38.530357 38.366494 38.204167 38.042728 37.883533 37.725924 37.571237 37.418802
37.269923 37.123920 36.982055 36.843636 36.709872 36.580063 36.455358 36.335045
36.220207 36.110126 36.005810 35.906536 35.813235 35.725179 35.643220 35.566630
35.496176 35.431135 35.372188 35.318619 35.271024 35.228698 35.192151 35.160693
35.134749 35.113647 35.097732 35.086350 35.079767 35.077355 35.079301 35.085005
35.094582 35.107460 35.123682 35.142713 35.164526 35.188623 35.214914 35.242939
35.272546 35.303320 35.335049 35.367365 35.400000
35.777778 35.746733 35.716052 35.686037 35.657109 35.629506 35.603701 35.579865
35.558521 35.539768 35.524174 35.511762 35.503144 35.498263 35.497768 35.501521
35.510205 35.523595 35.542405 35.566321 35.596084 35.631286 35.672692 35.719801
35.773393 35.832872 35.899033 35.971184 36.050127 36.135075 36.226835 36.324523
36.428950 36.539136 36.655890 36.778143 36.906697 37.040397 37.180038 37.324384
37.474218 37.628233 37.787200 37.949747 38.116632 38.286430 38.459884 38.635527
38.814090 38.994074 39.176197 39.358946 39.543025 39.726918 39.911319 40.094723
40.277815 40.459114 40.639296 40.816918 40.992648 41.165093 41.334911 41.500773
41.663324 41.821306 41.975351 42.124284 42.268714 42.407557 42.541399 42.669248
42.791661 42.907744 43.018019 43.121689 43.219239 43.309969 43.394318 43.471686
43.542457 43.606134 43.663039 43.712776 43.755601 43.791218 43.819812 43.841187
43.855454 43.862516 43.862408 43.855132 43.840647 43.819051 43.790230 43.754380
43.711314 43.661326 43.604158 43.540206 43.469145 43.391471 43.306799 43.215726
43.117814 43.013759 42.903075 42.786559 42.663684 42.535347 42.400985 42.261592
42.116578 41.967028 41.812330 41.653657 41.490379 41.323749 41.153124 40.979828
40.803208 40.624650 40.443491 40.261169 40.077011 39.892495 39.706938 39.521844
39.336521 39.152485 38.969031 38.787676 38.607703 38.430611 38.255672 38.084356
37.915921 37.751797 37.591228 37.435590 37.284115 37.138118 36.996816 36.861453
36.731239 36.607335 36.488945 36.377145 36.271133 36.171898 36.078633 35.992236
35.911902 35.838434 35.771032 35.710404 35.655760 35.607713 35.565484 35.529593
35.499280 35.474971 35.455927 35.442485 35.433929 35.430510 35.431542 35.437189
35.446798 35.460454 35.477538 35.498058 35.521434 35.547601 35.576021 35.606558
35.638722 35.672309 35.706879 35.742164 35.777778
36.155556 36.122248 36.089310 36.057178 36.026152 35.996729 35.969138 35.943929
35.921256 35.901722 35.885398 35.872938 35.864325 35.860258 35.860631 35.866183
35.876716 35.893003 35.914749 35.942759 35.976638 36.017217 36.064000 36.117837
36.178129 36.245743 36.319973 36.401699 36.490107 36.586084 36.688712 36.798879
36.915562 37.039648 37.170012 37.307537 37.450997 37.601267 37.757032 37.919152
38.086227 38.259105 38.436309 38.618673 38.804653 38.995067 39.188318 39.385208
39.584101 39.785781 39.988588 40.193292 40.398222 40.604135 40.809364 41.014655
41.218364 41.421225 41.621628 41.820301 42.015682 42.208489 42.397226 42.582599
42.763186 42.939680 43.110747 43.277063 43.437385 43.592370 43.740875 43.883530
44.019298 44.148774 44.271030 44.386620 44.494726 44.595854 44.689298 44.775506
44.853884 44.924818 44.987823 45.043217 45.090622 45.130283 45.161931 45.185731
45.201521 45.209384 45.209267 45.201167 45.185138 45.161096 45.129199 45.089282
45.041612 44.985942 44.922649 44.851412 44.772716 44.686172 44.592373 44.490869
44.382365 44.266352 44.143647 44.013694 43.877419 43.734226 43.585150 43.429560
43.268596 43.101602 42.929817 42.752563 42.571176 42.384959 42.195334 42.001592
41.805231 41.605530 41.404051 41.200065 40.995184 40.788670 40.582169 40.374936
40.168639 39.962518 39.758249 39.555061 39.354617 39.156134 38.961251 38.769167
38.581484 38.397387 38.218422 38.043760 37.874883 37.710947 37.553359 37.401261
37.255979 37.116641 36.984482 36.858623 36.740203 36.628337 36.524063 36.426494
36.336566 36.253396 36.177813 36.108942 36.047506 35.992643 35.944971 35.903644
35.869178 35.840746 35.818766 35.802433 35.792068 35.786897 35.787145 35.792071
35.801809 35.815657 35.833661 35.855159 35.880115 35.907912 35.938434 35.971113
36.005758 36.041853 36.079136 36.117147 36.155556
36.533333 36.497978 36.463066 36.428969 36.396200 36.365051 36.336100 36.309559
36.286062 36.265735 36.249269 36.236699 36.228766 36.225408 36.227413 36.234620
36.247857 36.266860 36.292493 36.324384 36.363427 36.409142 36.462447 36.522749
36.590987 36.666450 36.750095 36.841093 36.940411 37.047104 37.162141 37.284463
37.415038 37.552694 37.698394 37.850855 38.011032 38.177537 38.351311 38.530869
38.717138 38.908545 39.105997 39.307843 39.514973 39.725670 39.940805 40.158610
40.379936 40.602979 40.828575 41.054897 41.282768 41.510359 41.738476 41.965306
42.191646 42.415712 42.638290 42.857646 43.074557 43.287351 43.496795 43.701296
43.901608 44.096227 44.285894 44.469204 44.646878 44.817619 44.982123 45.139208
45.289537 45.432044 45.567355 45.694523 45.814127 45.925339 46.028684 46.123454
46.210109 46.288064 46.357704 46.418564 46.470951 46.514517 46.549486 46.575626
46.593072 46.601709 46.601581 46.592687 46.574981 46.548577 46.513338 46.469493
46.416817 46.355657 46.285703 46.207419 46.120417 46.025281 45.921550 45.809927
45.689889 45.562260 45.426460 45.283433 45.132551 44.974881 44.809754 44.638353
44.459980 44.275930 44.085480 43.890033 43.688848 43.483427 43.273013 43.059201
42.841220 42.620743 42.396991 42.171699 41.944080 41.715916 41.486412 41.257382
41.028019 40.800152 40.572961 40.348274 40.125256 39.905716 39.688800 39.476284
39.267296 39.063561 38.864189 38.670840 38.482606 38.301070 38.125308 37.956815
37.794653 37.640219 37.492563 37.352981 37.220514 37.096347 36.979517 36.871100
36.770129 36.677567 36.592453 36.515632 36.446155 36.384751 36.330486 36.283975
36.244303 36.211976 36.186101 36.167076 36.154038 36.147280 36.145971 36.150304
36.159487 36.173615 36.191939 36.214459 36.240475 36.269899 36.302080 36.336846
36.373603 36.412097 36.451793 36.492362 36.533333
36.911111 36.873976 36.837289 36.801571 36.767189 36.734738 36.704497 36.677128
36.652818 36.632292 36.615641 36.603647 36.596299 36.594431 36.597929 36.607670
36.623431 36.646131 36.675432 36.712290 36.756247 36.808290 36.867840 36.935907
37.011787 37.096510 37.189246 37.291037 37.400925 37.519959 37.647056 37.783263
37.927373 38.080430 38.241103 38.410427 38.586955 38.771707 38.963126 39.162216
39.367316 39.579412 39.796751 40.020296 40.248218 40.481457 40.718119 40.959123
41.202525 41.449227 41.697251 41.947482 42.197930 42.449462 42.700097 42.950688
43.199279 43.446712 43.691076 43.933203 44.171242 44.406019 44.635760 44.861280
45.080898 45.295417 45.503261 45.705214 45.899816 46.087829 46.267915 46.440806
46.605289 46.762062 46.910041 47.049877 47.180617 47.302858 47.415777 47.519906
47.614554 47.700179 47.776218 47.843049 47.900235 47.948067 47.986232 48.014928
48.033967 48.043449 48.043311 48.033551 48.014231 47.985250 47.946792 47.898660
47.841161 47.774006 47.697627 47.611646 47.516623 47.412098 47.298761 47.176077
47.044867 46.904533 46.756024 46.598688 46.433607 46.260082 46.079323 45.890595
45.695237 45.492482 45.283790 45.068375 44.847811 44.621294 44.390503 44.154624
43.915426 43.672085 43.426450 43.177689 42.927712 42.675677 42.423540 42.170448
41.918383 41.666480 41.416729 41.168247 40.923013 40.680128 40.441540 40.206330
39.976399 39.750807 39.531392 39.317192 39.109968 38.908737 38.715170 38.528265
38.349592 38.178134 38.015350 37.860210 37.714059 37.575858 37.446830 37.325933
37.214267 37.110789 37.016476 36.930292 36.853087 36.783837 36.723269 36.670377
36.625765 36.588449 36.558915 36.536209 36.520699 36.511465 36.508763 36.511711
36.520460 36.534170 36.552888 36.575824 36.602924 36.633454 36.667265 36.703680
36.742461 36.782992 36.824953 36.867793 36.911111
37.288889 37.250224 37.212089 37.174925 37.139342 37.105693 37.074661 37.046504
37.021974 37.001227 36.985080 36.973583 36.967611 36.967103 36.972987 36.985086
37.004373 37.030551 37.064636 37.106204 37.156304 37.214385 37.281524 37.357037
37.442024 37.535664 37.639074 37.751296 37.873454 38.004454 38.145424 38.295132
38.454702 38.622767 38.800445 38.986238 39.181249 39.383855 39.595141 39.813370
40.039604 40.272000 40.511596 40.756456 41.007593 41.262992 41.523642 41.787465
42.055426 42.325405 42.598343 42.872096 43.147588 43.422672 43.698255 43.972207
44.245423 44.515813 44.784261 45.048735 45.310111 45.566434 45.818572 46.064665
46.305568 46.539531 46.767398 46.987535 47.200769 47.405597 47.602819 47.791066
47.971107 48.141712 48.303606 48.455700 48.598666 48.731557 48.854982 48.968135
49.071550 49.164559 49.247615 49.320186 49.382633 49.434560 49.476230 49.507378
49.528164 49.538457 49.538308 49.527718 49.506630 49.475175 49.433192 49.380941
49.318159 49.245239 49.161819 49.068427 48.964609 48.851032 48.727157 48.593789
48.450317 48.297687 48.135224 47.964014 47.783330 47.594400 47.396453 47.190857
46.976808 46.755808 46.527029 46.292101 46.050179 45.803014 45.549746 45.292234
45.029611 44.763830 44.494014 44.222193 43.947485 43.671978 43.394778 43.118015
42.840783 42.565229 42.290432 42.018537 41.748604 41.482757 41.220033 40.962514
40.709214 40.462153 40.220322 39.985664 39.757144 39.536615 39.323017 39.118099
38.920781 38.732697 38.552750 38.382450 38.220687 38.068843 37.925800 37.792807
37.668741 37.554719 37.449621 37.354426 37.268023 37.191259 37.123037 37.064068
37.013278 36.971250 36.936934 36.910787 36.891792 36.880282 36.875282 36.877003
36.884515 36.897917 36.916327 36.939735 36.967313 36.998949 37.033875 37.071877
37.112253 37.154697 37.198576 37.243492 37.288889
37.666667 37.626779 37.587419 37.549204 37.512566 37.478206 37.446457 37.418094
37.393348 37.373066 37.357364 37.347156 37.342444 37.344198 37.352299 37.367772
37.390368 37.421159 37.459766 37.507300 37.563244 37.628743 37.703141 37.787607
37.881341 37.985533 38.099234 38.223647 38.357676 38.502528 38.656959 38.822176
38.996786 39.181988 39.376247 39.580747 39.793816 40.016618 40.247350 40.487152
40.734103 40.989314 41.250755 41.519511 41.793456 42.073646 42.357881 42.647186
42.939303 43.235233 43.532681 43.832623 44.132751 44.434023 44.734136 45.034035
45.331448 45.627309 45.919399 46.208643 46.492899 46.773083 47.047147 47.315999
47.577705 47.833162 48.080558 48.320780 48.552151 48.775536 48.989402 49.194586
49.389704 49.575553 49.750901 49.916497 50.071260 50.215877 50.349419 50.472501
50.584342 50.685473 50.775262 50.854146 50.921636 50.978066 51.023091 51.056936
51.079394 51.090578 51.090420 51.078917 51.056137 51.021964 50.976605 50.919829
50.851981 50.772725 50.682546 50.581006 50.468734 50.345198 50.211175 50.066049
49.910746 49.744576 49.568618 49.382121 49.186315 48.980401 48.765759 48.541551
48.309308 48.068162 47.819788 47.563298 47.300502 47.030500 46.755226 46.473770
46.188178 45.897534 45.603977 45.306585 45.007573 44.706008 44.404163 44.101093
43.799101 43.497230 43.197791 42.899808 42.605580 42.314107 42.027653 41.745192
41.468932 41.197820 40.933987 40.676354 40.426959 40.184694 39.951491 39.726216
39.510682 39.303731 39.107050 38.919459 38.742511 38.575012 38.418373 38.271393
38.135338 38.009005 37.893515 37.787669 37.692443 37.606650 37.531120 37.464687
37.408037 37.360030 37.321214 37.290480 37.268243 37.253430 37.246328 37.245908
37.252331 37.264620 37.282815 37.305995 37.334086 37.366228 37.402239 37.441325
37.483201 37.527144 37.572771 37.619437 37.666667
38.044444 38.003613 37.963400 37.924326 37.887100 37.852141 37.820242 37.791713
37.767426 37.747574 37.733103 37.724086 37.721534 37.725392 37.736732 37.755366
37.782417 37.817559 37.861963 37.915158 37.978353 38.050928 38.134123 38.227168
38.331324 38.445665 38.571470 38.707652 38.855499 39.013766 39.183739 39.364016
39.555877 39.757761 39.970935 40.193689 40.427266 40.669811 40.922544 41.183475
41.453790 41.731378 42.017392 42.309611 42.609156 42.913711 43.224366 43.538731
43.857863 44.179324 44.504142 44.829850 45.157454 45.484482 45.811923 46.137326
46.461666 46.782540 47.100914 47.414455 47.724121 48.027674 48.326066 48.617172
48.901939 49.178368 49.447399 49.707175 49.958620 50.200029 50.432304 50.653898
50.865679 51.066264 51.256474 51.435089 51.602874 51.758771 51.903476 52.036089