# vtk DataFile Version 3.0
Steady-state temperature (Jacobi)
ASCII
DATASET STRUCTURED_POINTS
DIMENSIONS 181 181 1
ORIGIN 0.0 0.0 0.0
SPACING 0.05 0.05 1.0
POINT_DATA 32761
SCALARS Temperature float 1
LOOKUP_TABLE default
32.000000 32.000000 32.000000 32.000000 32.000000 32.000000 32.000000 32.000000
32.000000 32.000000 32.000000 32.000000 32.000000 32.000000 32.000000 32.000000
32.000000 32.000000 32.000000 32.000000 32.000000 32.000000 32.000000 32.000000
32.000000 32.000000 32.000000 32.000000 32.000000 32.000000 32.000000 32.000000
32.000000 32.000000 32.000000 32.000000 32.000000 32.000000 32.000000 32.000000
32.000000 32.000000 32.000000 32.000000 32.000000 32.000000 32.000000 32.000000
32.000000 32.000000 32.000000 32.000000 32.000000 32.000000 32.000000 32.000000
32.000000 32.000000 32.000000 32.000000 32.000000 32.000000 32.000000 32.000000
32.000000 32.000000 32.000000 32.000000 32.000000 32.000000 32.000000 32.000000
32.000000 32.000000 32.000000 32.000000 32.000000 32.000000 32.000000 32.000000
32.000000 32.000000 32.000000 32.000000 32.000000 32.000000 32.000000 32.000000
32.000000 32.000000 32.000000 32.000000 32.000000 32.000000 32.000000 32.000000
32.000000 32.000000 32.000000 32.000000 32.000000 32.000000 32.000000 32.000000
32.000000 32.000000 32.000000 32.000000 32.000000 32.000000 32.000000 32.000000
32.000000 32.000000 32.000000 32.000000 32.000000 32.000000 32.000000 32.000000
32.000000 32.000000 32.000000 32.000000 32.000000 32.000000 32.000000 32.000000
32.000000 32.000000 32.000000 32.000000 32.000000 32.000000 32.000000 32.000000
32.000000 32.000000 32.000000 32.000000 32.000000 32.000000 32.000000 32.000000
32.000000 32.000000 32.000000 32.000000 32.000000 32.000000 32.000000 32.000000
32.000000 32.000000 32.000000 32.000000 32.000000 32.000000 32.000000 32.000000
32.000000 32.000000 32.000000 32.000000 32.000000 32.000000 32.000000 32.000000
32.000000 32.000000 32.000000 32.000000 32.000000 32.000000 32.000000 32.000000
32.000000 32.000000 32.000000 32.000000 32.000000
32.377778 32.404691 32.431613 32.458552 32.485517 32.512516 32.539556 32.566647
32.593794 32.621008 32.648291 32.675654 32.703100 32.730637 32.758266 32.785996
32.813826 32.841763 32.869805 32.897960 32.926220 32.954593 32.983070 33.011658
33.040344 33.069134 33.098013 33.126985 33.156034 33.185161 33.214348 33.243593
33.272876 33.302194 33.331524 33.360862 33.390183 33.419479 33.448724 33.477910
33.507006 33.536003 33.564870 33.593596 33.622148 33.650513 33.678658 33.706570
33.734214 33.761575 33.788619 33.815330 33.841675 33.867638 33.893185 33.918302
33.942953 33.967127 33.990789 34.013927 34.036509 34.058524 34.079941 34.100751
34.120925 34.140454 34.159314 34.177495 34.194975 34.211746 34.227790 34.243100
34.257658 34.271461 34.284492 34.296748 34.308216 34.318894 34.328771 34.337845
34.346108 34.353558 34.360189 34.365999 34.370985 34.375144 34.378474 34.380975
34.382645 34.383483 34.383489 34.382663 34.381006 34.378517 34.375200 34.371055
34.366085 34.360290 34.353677 34.346246 34.338003 34.328951 34.319098 34.308446
34.297006 34.284782 34.271784 34.258019 34.243501 34.228234 34.212237 34.195516
34.178091 34.159969 34.141173 34.121711 34.101610 34.080878 34.059544 34.037619
34.015132 33.992095 33.968541 33.944482 33.919952 33.894965 33.869554 33.843735
33.817542 33.790991 33.764117 33.736934 33.709478 33.681764 33.653825 33.625677
33.597353 33.568865 33.540247 33.511510 33.482686 33.453785 33.424836 33.395847
33.366848 33.337843 33.308859 33.279901 33.250991 33.222133 33.193348 33.164636
33.136016 33.107488 33.079067 33.050750 33.022552 32.994467 32.966507 32.938667
32.910955 32.883363 32.855899 32.828554 32.801332 32.774224 32.747233 32.720347
32.693568 32.666885 32.640296 32.613790 32.587364 32.561007 32.534713 32.508473
32.482279 32.456121 32.429991 32.403880 32.377778
32.755556 32.809388 32.863238 32.917122 32.971058 33.025061 33.079149 33.133336
33.187640 33.242071 33.296648 33.351379 33.406282 33.461360 33.516631 33.572096
33.627770 33.683650 33.739751 33.796064 33.852603 33.909354 33.966330 34.023510
34.080905 34.138491 34.196274 34.254226 34.312350 34.370612 34.429013 34.487512
34.546108 34.604755 34.663447 34.722135 34.780809 34.839415 34.897939 34.956323
35.014551 35.072560 35.130330 35.187798 35.244938 35.301685 35.358013 35.413853
35.469177 35.523916 35.578041 35.631481 35.684207 35.736149 35.787278 35.837526
35.886863 35.935224 35.982581 36.028869 36.074064 36.118105 36.160968 36.202598
36.242972 36.282040 36.319782 36.356151 36.391131 36.424681 36.456787 36.487411
36.516543 36.544151 36.570226 36.594741 36.617688 36.639046 36.658809 36.676959
36.693492 36.708393 36.721659 36.733281 36.743255 36.751574 36.758237 36.763239
36.766579 36.768255 36.768267 36.766615 36.763300 36.758323 36.751687 36.743396
36.733451 36.721862 36.708630 36.693767 36.677275 36.659169 36.639454 36.618149
36.595259 36.570806 36.544799 36.517265 36.488212 36.457675 36.425663 36.392214
36.357343 36.321091 36.283476 36.244545 36.204316 36.162843 36.120147 36.076284
36.031280 35.985194 35.938053 35.889921 35.840827 35.790837 35.739980 35.688326
35.635905 35.582786 35.529001 35.474618 35.419669 35.364224 35.308310 35.251997
35.195311 35.138321 35.081048 35.023560 34.965877 34.908060 34.850127 34.792138
34.734106 34.676085 34.618086 34.560158 34.502309 34.444584 34.386986 34.329554
34.272288 34.215224 34.158358 34.101718 34.045299 33.989124 33.933184 33.877499
33.822055 33.766868 33.711922 33.657228 33.602769 33.548550 33.494553 33.440779
33.387208 33.333839 33.280650 33.227635 33.174773 33.122055 33.069460 33.016975
32.964580 32.912259 32.859993 32.807765 32.755556
33.133333 33.214097 33.294887 33.375729 33.456646 33.537668 33.618814 33.700114
33.781583 33.863252 33.945131 34.027252 34.109620 34.192264 34.275186 34.358414
34.441941 34.525795 34.609964 34.694471 34.779299 34.864467 34.949951 35.035767
35.121883 35.208311 35.295012 35.381994 35.469209 35.556660 35.644293 35.732104
35.820032 35.908069 35.996146 36.084248 36.172300 36.260282 36.348112 36.435765
36.523152 36.610245 36.696950 36.783232 36.868993 36.954196 37.038739 37.122582
37.205620 37.287811 37.369049 37.449291 37.528431 37.606424 37.683167 37.758615
37.832668 37.905282 37.976360 38.045862 38.113695 38.179820 38.244151 38.306654
38.367248 38.425902 38.482543 38.537144 38.589638 38.640004 38.688183 38.734155
38.777869 38.819312 38.858437 38.895234 38.929665 38.961723 38.991375 39.018615
39.043420 39.065784 39.085688 39.103129 39.118093 39.130578 39.140574 39.148080
39.153091 39.155607 39.155625 39.153146 39.148172 39.140703 39.130747 39.118304
39.103385 39.085992 39.066140 39.043833 39.019089 38.991915 38.962335 38.930357
38.896011 38.859307 38.820284 38.778952 38.735357 38.689515 38.641477 38.591263
38.538932 38.484508 38.428057 38.369607 38.309232 38.246964 38.182883 38.117025
38.049478 37.980280 37.909525 37.837255 37.763567 37.688505 37.612171 37.534610
37.455928 37.376168 37.295438 37.213782 37.131307 37.048055 36.964133 36.879581
36.794503 36.708935 36.622979 36.536667 36.450095 36.363293 36.276351 36.189294
36.102204 36.015102 35.928066 35.841109 35.754301 35.667651 35.581221 35.495015
35.409089 35.323439 35.238113 35.153104 35.068452 34.984144 34.900214 34.816644
34.733460 34.650641 34.568207 34.486131 34.404428 34.323068 34.242059 34.161370
34.081002 34.000922 33.921127 33.841582 33.762278 33.683181 33.604276 33.525531
33.446926 33.368430 33.290018 33.211661 33.133333
33.511111 33.618824 33.726572 33.834387 33.942308 34.050363 34.158592 34.267017
34.375680 34.484598 34.593812 34.703334 34.813204 34.923426 35.034039 35.145041
35.256467 35.368307 35.480594 35.593309 35.706481 35.820082 35.934135 36.048604
36.163508 36.278798 36.394490 36.510523 36.626907 36.743573 36.860521 36.977673
37.095022 37.212481 37.330035 37.447587 37.565115 37.682512 37.799750 37.916714
38.033368 38.149589 38.265336 38.380480 38.494973 38.608681 38.721551 38.833446
38.944311 39.054004 39.162467 39.269559 39.375221 39.479314 39.581776 39.682471
39.781340 39.878252 39.973148 40.065903 40.156463 40.244709 40.330592 40.414000
40.494889 40.573157 40.648766 40.721621 40.791691 40.858892 40.923196 40.984531
41.042874 41.098161 41.150375 41.199463 41.245410 41.288172 41.327740 41.364075
41.397172 41.427001 41.453558 41.476820 41.496785 41.513436 41.526773 41.536784
41.543469 41.546824 41.546848 41.543542 41.536906 41.526945 41.513662 41.497067
41.477162 41.453964 41.427477 41.397723 41.364707 41.328461 41.288990 41.246333
41.200500 41.151537 41.099458 41.044318 40.986135 40.924973 40.860856 40.793858
40.724007 40.651387 40.576031 40.498035 40.417438 40.334342 40.248794 40.160905
40.070725 39.978375 39.883910 39.787457 39.689074 39.588894 39.486977 39.383462
39.278409 39.171959 39.064173 38.955194 38.845080 38.733973 38.621931 38.509092
38.395509 38.281318 38.166568 38.051388 37.935822 37.819994 37.703939 37.587774
37.471529 37.355312 37.239144 37.123125 37.007269 36.891666 36.776322 36.661318
36.546651 36.432393 36.318536 36.205138 36.092186 35.979730 35.867747 35.756279
35.645298 35.534836 35.424860 35.315393 35.206399 35.097889 34.989826 34.882213
34.775010 34.668211 34.561776 34.455692 34.349916 34.244430 34.139190 34.034174
33.929337 33.824651 33.720075 33.615575 33.511111
33.888889 34.023574 34.158302 34.293119 34.428062 34.563182 34.698510 34.834097
34.969968 35.106177 35.242740 35.379709 35.517094 35.654946 35.793265 35.932099
36.071439 36.211330 36.351752 36.492745 36.634280 36.776391 36.919036 37.062243
37.205958 37.350203 37.494912 37.640098 37.785682 37.931669 38.077969 38.224576
38.371387 38.518389 38.665467 38.812596 38.959650 39.106596 39.253296 39.399710
39.545688 39.691181 39.836032 39.980184 40.123473 40.265834 40.407098 40.547196
40.685953 40.823297 40.959052 41.093143 41.225393 41.355727 41.483973 41.610053
41.733799 41.855139 41.973910 42.090042 42.203381 42.313863 42.421343 42.525762
42.626987 42.724966 42.819575 42.910772 42.998444 43.082556 43.163008 43.239771
43.312759 43.381948 43.447264 43.508689 43.566161 43.619667 43.669155 43.714616
43.756008 43.793327 43.826538 43.855639 43.880606 43.901436 43.918113 43.930636
43.938996 43.943192 43.943222 43.939086 43.930788 43.918329 43.901719 43.880959
43.856067 43.827047 43.793922 43.756697 43.715407 43.670056 43.620689 43.567315
43.509986 43.448716 43.383570 43.314565 43.241777 43.165231 43.085013 43.001154
42.913755 42.822853 42.728560 42.630921 42.530061 42.426032 42.318970 42.208934
42.096071 41.980445 41.862214 41.741446 41.618308 41.492871 41.365308 41.235695
41.104206 40.970919 40.836011 40.699558 40.561739 40.422627 40.282398 40.141122
39.998972 39.856010 39.712406 39.568214 39.423596 39.278602 39.133381 38.987975
38.842525 38.697064 38.551720 38.406518 38.261574 38.116903 37.972609 37.828698
37.685261 37.542295 37.399879 37.258000 37.116725 36.976033 36.835979 36.696533
36.557739 36.419561 36.282030 36.145106 36.008807 35.873088 35.737959 35.603370
35.469319 35.335755 35.202668 35.070003 34.937743 34.805831 34.674243 34.542922
34.411838 34.280935 34.150176 34.019508 33.888889
34.266667 34.428353 34.590092 34.751935 34.913937 35.076143 35.238612 35.401380
35.564509 35.728025 35.891991 36.056425 36.221387 36.386885 36.552978 36.719662
36.886992 37.054953 37.223595 37.392889 37.562879 37.733524 37.904862 38.076835
38.249473 38.422705 38.596551 38.770926 38.945840 39.121192 39.296980 39.473091
39.649511 39.826110 40.002866 40.179632 40.356375 40.532936 40.709269 40.885203
41.060682 41.235522 41.409659 41.582899 41.755168 41.926266 42.096110 42.264494
42.431331 42.596411 42.759643 42.920816 43.079836 43.236495 43.390699 43.542243
43.691035 43.836878 43.979683 44.119260 44.255528 44.388307 44.517523 44.643007
44.764694 44.882429 44.996154 45.105729 45.211106 45.312159 45.408848 45.501063
45.588772 45.671880 45.750362 45.824137 45.893187 45.957444 46.016896 46.071488
46.121210 46.166020 46.205912 46.240853 46.270840 46.295849 46.315879 46.330914
46.340954 46.345992 46.346028 46.341063 46.331097 46.316139 46.296189 46.271265
46.241368 46.206524 46.166735 46.122038 46.072438 46.017979 45.958672 45.894573
45.825694 45.752106 45.673827 45.590941 45.503471 45.411516 45.315108 45.214359
45.109310 45.000088 44.886743 44.769417 44.648168 44.523152 44.394437 44.262194
44.126496 43.987527 43.845369 43.700214 43.552150 43.401380 43.247993 43.092200
42.934093 42.773885 42.611669 42.447659 42.281947 42.114747 41.946144 41.776350
41.605445 41.433635 41.260993 41.087716 40.913868 40.739638 40.565079 40.390368
40.215549 40.040785 39.866109 39.691671 39.517491 39.343705 39.170322 38.997463
38.825126 38.653416 38.482321 38.311929 38.142220 37.973266 37.805037 37.637592
37.470890 37.304977 37.139806 36.975407 36.811727 36.648784 36.486519 36.324938
36.163979 36.003635 35.843841 35.684581 35.525787 35.367434 35.209454 35.051812
34.894443 34.737303 34.580329 34.423470 34.266667
34.644444 34.833166 35.021949 35.210857 35.399946 35.589285 35.778919 35.968922
36.159329 36.350214 36.541604 36.733570 36.926129 37.119351 37.313239 37.507859
37.703201 37.899327 38.096212 38.293911 38.492385 38.691681 38.891742 39.092608
39.294204 39.496561 39.699587 39.903300 40.107591 40.312466 40.517799 40.723583
40.929673 41.136051 41.342553 41.549148 41.755656 41.962031 42.168080 42.373742
42.578810 42.783213 42.986729 43.189277 43.390625 43.590682 43.789208 43.986103
44.181123 44.374163 44.564975 44.753450 44.939342 45.122540 45.302800 45.480015
45.653946 45.824489 45.991414 46.154623 46.313898 46.469148 46.620169 46.766877
46.909086 47.046721 47.179612 47.307695 47.430817 47.548925 47.661882 47.769648
47.872102 47.969213 48.060878 48.147073 48.227713 48.302780 48.372202 48.435970
48.494027 48.546364 48.592938 48.633745 48.668753 48.697959 48.721341 48.738898
48.750619 48.756502 48.756544 48.750746 48.739112 48.721644 48.698356 48.669248
48.634346 48.593652 48.547199 48.494993 48.437080 48.373467 48.304214 48.229331
48.148892 48.062915 47.971487 47.874634 47.772460 47.664997 47.552368 47.434614
47.311876 47.184204 47.051757 46.914598 46.772900 46.626738 46.476302 46.321677
46.163068 46.000568 45.834398 45.664656 45.491576 45.315263 45.135957 44.953768
44.768943 44.581592 44.391966 44.200174 44.006468 43.810952 43.613876 43.415339
43.215584 43.014703 42.812931 42.610352 42.407188 42.203512 41.999535 41.795316
41.591055 41.386795 41.182720 40.978862 40.775387 40.572314 40.369790 40.167822
39.966539 39.765934 39.566120 39.367077 39.168900 38.971556 38.775124 38.579561
38.384927 38.191172 37.998338 37.806368 37.615288 37.425033 37.235616 37.046966
36.859081 36.671887 36.485370 36.299452 36.114108 35.929259 35.744868 35.560857
35.377181 35.193762 35.010547 34.827462 34.644444
35.022222 35.238018 35.453887 35.669895 35.886120 36.102620 36.319477 36.536740
36.754491 36.972769 37.191657 37.411179 37.631419 37.852388 38.074164 38.296744
38.520203 38.744521 38.969765 39.195900 39.422985 39.650965 39.879890 40.109688
40.340396 40.571923 40.804294 41.037396 41.271244 41.505702 41.740772 41.976297
42.212263 42.448494 42.684961 42.921468 43.157969 43.394251 43.630254 43.865745
44.100650 44.334722 44.567873 44.799842 45.030528 45.259662 45.487131 45.712658
45.936124 46.157245 46.375897 46.591795 46.804813 47.014668 47.221233 47.424231
47.623538 47.818886 48.010156 48.197094 48.379586 48.557394 48.730413 48.898423
49.061330 49.218931 49.371146 49.517790 49.658797 49.794003 49.923352 50.046700
50.164005 50.275142 50.380079 50.478711 50.571013 50.656898 50.736352 50.809301
50.875738 50.935604 50.988896 51.035569 51.075623 51.109025 51.135776 51.155855
51.169264 51.175992 51.176040 51.169409 51.156100 51.136123 51.109480 51.076191
51.036257 50.989713 50.936560 50.876844 50.810571 50.737799 50.658539 50.572864
50.480791 50.382410 50.277744 50.166902 50.049916 49.926915 49.797940 49.663141
49.522570 49.376397 49.224688 49.067632 48.905308 48.737924 48.565572 48.388479
48.206747 48.020621 47.830213 47.635781 47.437446 47.235478 47.030004 46.821303
46.609503 46.394891 46.177593 45.957899 45.735934 45.511985 45.286171 45.058775
44.829908 44.599846 44.368688 44.136700 43.903971 43.670751 43.437115 43.203299
42.969364 42.735527 42.501834 42.268483 42.035506 41.803080 41.571221 41.340086
41.109676 40.880128 40.651427 40.423690 40.196889 39.971119 39.746341 39.522630
39.299934 39.078311 38.857697 38.638132 38.419546 38.201959 37.985293 37.769554
37.554658 37.340596 37.127280 36.914685 36.702723 36.491357 36.280497 36.070094
35.860059 35.650335 35.440835 35.231491 35.022222
35.400000 35.642915 35.885909 36.129069 36.372465 36.616187 36.860298 37.104890
37.350013 37.595762 37.842174 38.089342 38.337288 38.586103 38.835794 39.086447
39.338050 39.590685 39.844320 40.099029 40.354760 40.611577 40.869408 41.128304
41.388172 41.649049 41.910821 42.173509 42.436977 42.701230 42.966108 43.231601
43.497524 43.763851 44.030373 44.297047 44.563643 44.830100 45.096167 45.361765
45.626626 45.890655 46.153567 46.415252 46.675410 46.933920 47.190471 47.444931
47.696982 47.946484 48.193117 48.436734 48.677016 48.913816 49.146818 49.375878
49.600687 49.821106 50.036839 50.247754 50.453570 50.654166 50.849279 51.038801
51.222488 51.400245 51.571853 51.737229 51.896177 52.048629 52.194412 52.333472
52.465659 52.590932 52.709162 52.820320 52.924299 53.021077 53.110568 53.192759
53.267578 53.335020 53.395030 53.447603 53.492702 53.530323 53.560441 53.583056
53.598151 53.605729 53.605783 53.598315 53.583332 53.560833 53.530836 53.493341
53.448379 53.395950 53.336098 53.268825 53.194190 53.112199 53.022926 52.926384
52.822663 52.711786 52.593861 52.468920 52.337093 52.198423 52.053062 51.901065
51.742610 51.577763 51.406726 51.229581 51.046550 50.857732 50.663371 50.463577
50.258618 50.048614 49.833852 49.614464 49.390749 49.162848 48.931073 48.695570
48.456659 48.214487 47.969380 47.721482 47.471120 47.218434 46.963746 46.707190
46.449080 46.189539 45.928871 45.667186 45.404773 45.141729 44.878325 44.614643
44.350935 44.087264 43.823863 43.560777 43.298218 43.036211 42.774946 42.514431
42.254833 41.996143 41.738503 41.481888 41.226419 40.972054 40.718893 40.466879
40.216089 39.966456 39.718035 39.470749 39.224632 38.979598 38.735662 38.492732
38.250805 38.009783 37.769647 37.530295 37.291693 37.053740 36.816385 36.579528
36.343108 36.107024 35.871206 35.635559 35.400000
35.777778 36.047859 36.318032 36.588384 36.859012 37.129992 37.401427 37.673380
37.945957 38.219207 38.493235 38.768076 39.043833 39.320524 39.598247 39.877003
40.156883 40.437867 40.720040 41.003358 41.287899 41.573594 41.860508 42.148551
42.437773 42.728059 43.019442 43.311783 43.605099 43.899224 44.194156 44.489704
44.785846 45.082366 45.379222 45.676172 45.973156 46.269908 46.566346 46.862183
47.157319 47.451445 47.744446 48.035995 48.325960 48.614001 48.899973 49.183524
49.464501 49.742545 50.017494 50.288990 50.556866 50.820767 51.080527 51.335796
51.586414 51.832043 52.072528 52.307548 52.536959 52.760458 52.977914 53.189047
53.393741 53.591740 53.782942 53.967119 54.144186 54.313939 54.476311 54.631124
54.778325 54.917762 55.049397 55.173100 55.288846 55.396529 55.496131 55.587566
55.670827 55.745844 55.812614 55.871086 55.921260 55.963099 55.996604 56.021752
56.038544 56.046970 56.047031 56.038727 56.022059 55.997040 55.963669 55.921972
55.871949 55.813639 55.747043 55.672214 55.589158 55.497945 55.398585 55.291166
55.175706 55.052315 54.921020 54.781952 54.635150 54.480772 54.318868 54.149622
53.973101 53.789514 53.598944 53.401626 53.197662 52.987310 52.770689 52.548082
52.319623 52.085617 51.846209 51.601726 51.352322 51.098341 50.839944 50.577486
50.311131 50.041243 49.767987 49.491727 49.212626 48.931046 48.647144 48.361275
48.073585 47.784419 47.493909 47.202388 46.909972 46.616975 46.323495 46.029827
45.736051 45.442439 45.149050 44.856133 44.563727 44.272055 43.981137 43.691169
43.402152 43.114256 42.827463 42.541917 42.257583 41.974579 41.692852 41.412498
41.133449 40.855775 40.579397 40.304362 40.030579 39.758074 39.486747 39.216604
38.947538 38.679534 38.412482 38.146351 37.881026 37.616459 37.352538 37.089198
36.826329 36.563853 36.301663 36.039673 35.777778
36.155556 36.452856 36.750256 37.047862 37.345763 37.644073 37.942869 38.242266
38.542329 38.843174 39.144849 39.447471 39.751070 40.055757 40.361544 40.668539
40.976729 41.286215 41.596962 41.909061 42.222452 42.537214 42.853261 43.170657
43.489291 43.809208 44.130272 44.452508 44.775751 45.100009 45.425086 45.750969
46.077434 46.404446 46.731752 47.059296 47.386796 47.714175 48.041127 48.367549
48.693113 49.017697 49.340950 49.662733 49.982676 50.300624 50.616193 50.929215
51.239297 51.546261 51.849708 52.149454 52.445103 52.736468 53.023157 53.304987
53.581577 53.852748 54.118136 54.377574 54.630716 54.877408 55.117327 55.350337
55.576140 55.794617 56.005501 56.208689 56.403943 56.591181 56.770194 56.940916
57.103169 57.256903 57.401967 57.538326 57.665853 57.784529 57.894248 57.994999
58.086701 58.169348 58.242877 58.307287 58.362533 58.408616 58.445505 58.473201
58.491689 58.500969 58.501035 58.491890 58.473540 58.445985 58.409245 58.363318
58.308238 58.244006 58.170669 58.088229 57.996753 57.896246 57.786794 57.668408
57.541196 57.405181 57.260491 57.107162 56.945350 56.775104 56.596608 56.409927
56.215274 56.012733 55.802547 55.584818 55.359817 55.127666 54.888666 54.642955
54.390861 54.132537 53.868335 53.598422 53.323170 53.042757 52.757567 52.467788
52.173815 51.875835 51.574251 51.269249 50.961231 50.650377 50.337085 50.021525
49.704085 49.384923 49.064412 48.742692 48.420122 48.096821 47.773126 47.449138
47.125168 46.801295 46.477805 46.154754 45.832402 45.510781 45.190123 44.870437
44.551925 44.234578 43.918568 43.603864 43.290610 42.978757 42.668422 42.359536
42.052190 41.746302 41.441936 41.138995 40.837520 40.537403 40.238661 39.941179
39.644950 39.349853 39.055863 38.762854 38.470780 38.179516 37.888999 37.599103
37.309751 37.020821 36.732220 36.443832 36.155556
36.533333 36.857907 37.182595 37.507501 37.832748 38.158428 38.484668 38.811545
39.139189 39.467663 39.797095 40.127529 40.459093 40.791809 41.125800 41.461067
41.797725 42.135750 42.475247 42.816168 43.158605 43.502482 43.847876 44.194682
44.542962 44.892580 45.243578 45.595790 45.949236 46.303720 46.659238 47.015563
47.372669 47.730294 48.088388 48.446661 48.805036 49.163193 49.521031 49.878203
50.234584 50.589802 50.943710 51.295913 51.646246 51.994296 52.339880 52.682573
53.022179 53.358264 53.690625 54.018823 54.342652 54.661677 54.975690 55.284268
55.587207 55.884097 56.174745 56.458762 56.735967 57.005994 57.268682 57.523692
57.770881 58.009941 58.240751 58.463035 58.676692 58.881480 59.077319 59.264000
59.441461 59.609524 59.768147 59.917181 60.056597 60.186274 60.306195 60.416264
60.516473 60.606746 60.687083 60.757426 60.817779 60.868101 60.908396 60.938638
60.958831 60.968963 60.969036 60.959051 60.939008 60.908921 60.868788 60.818637
60.758466 60.688317 60.608190 60.518143 60.418180 60.308379 60.188748 60.059388
59.920316 59.771658 59.613442 59.445821 59.268840 59.082681 58.887404 58.683225
58.470223 58.248646 58.018596 57.780352 57.534038 57.279966 57.018280 56.749324
56.473260 56.190460 55.901104 55.605589 55.304108 54.997076 54.684698 54.367403
54.045401 53.719131 53.388802 53.054858 52.717502 52.377175 52.034074 51.688630
51.341027 50.991684 50.640766 50.288675 49.935557 49.581793 49.227505 48.873049
48.518525 48.164259 47.810327 47.457026 47.104406 46.752733 46.402033 46.052540
45.704255 45.357381 45.011895 44.667969 44.325559 43.984804 43.645641 43.308181
42.972340 42.638201 42.305667 41.974790 41.645460 41.317705 40.991404 40.666558
40.343039 40.020826 39.699784 39.379872 39.060951 38.742961 38.425764 38.109279
37.793372 37.477948 37.162875 36.848045 36.533333
36.911111 37.263019 37.615047 37.967325 38.319962 38.673094 39.026817 39.381269
39.736530 40.092742 40.449963 40.808335 41.167897 41.528784 41.891012 42.254711
42.619872 42.986615 43.354904 43.724846 44.096377 44.469589 44.844386 45.220846
45.598839 45.978422 46.359434 46.741909 47.125652 47.510672 47.896741 48.283843
48.671712 49.060308 49.449331 49.838711 50.228117 50.617451 51.006350 51.394689
51.782076 52.168360 52.553123 52.936193 53.317127 53.695733 54.071552 54.444374
54.813729 55.179394 55.540893 55.897995 56.250225 56.597351 56.938903 57.274652
57.604143 57.927154 58.243250 58.552222 58.853659 59.147372 59.432976 59.710303
59.979003 60.238931 60.489770 60.731400 60.963540 61.186095 61.398821 61.601643
61.794354 61.976900 62.149108 62.310942 62.462259 62.603038 62.733165 62.852630
62.961343 63.059303 63.146441 63.222761 63.288213 63.342803 63.386498 63.419302
63.441197 63.452187 63.452267 63.441436 63.419704 63.387068 63.343549 63.289144
63.223889 63.147780 63.060870 62.963156 62.854710 62.735534 62.605723 62.465286
62.314343 62.152915 61.981149 61.799082 61.606892 61.404633 61.192518 60.970621
60.739192 60.498327 60.248312 59.989268 59.721517 59.445204 59.160687 58.868133
58.567934 58.260278 57.945584 57.624060 57.296150 56.962074 56.622295 56.277042
55.926792 55.571777 55.212481 54.849133 54.482218 54.111958 53.738830 53.363046
52.985070 52.605097 52.223574 51.840676 51.456827 51.072177 50.687128 50.301801
49.916569 49.531528 49.147016 48.763104 48.380096 47.998034 47.617188 47.237574
46.859426 46.482733 46.107697 45.734280 45.362651 44.992748 44.624707 44.258447
43.894070 43.531477 43.170739 42.811743 42.454530 42.098973 41.745085 41.392730
41.041896 40.692438 40.344320 39.997392 39.651598 39.306784 38.962875 38.619718
38.277220 37.935231 37.593641 37.252309 36.911111
37.288889 37.668189 38.047626 38.427325 38.807433 39.188061 39.569360 39.951425
40.334411 40.718395 41.103530 41.489873 41.877573 42.266664 42.657290 43.049457
43.443302 43.838803 44.236084 44.635094 45.035942 45.438544 45.842993 46.249171
46.657149 47.066775 47.478098 47.890929 48.305290 48.720956 49.137923 49.555926
49.974934 50.394643 50.814993 51.235643 51.656501 52.077193 52.497594 52.917298
53.336152 53.753717 54.169814 54.583977 54.996003 55.405404 55.811955 56.215153
56.614755 57.010249 57.401382 57.787636 58.168754 58.544223 58.913785 59.276937
59.633430 59.982779 60.324747 60.658872 60.984936 61.302507 61.611389 61.911184
62.201721 62.482640 62.753797 63.014871 63.265746 63.506142 63.735968 63.954984
64.163125 64.360188 64.546128 64.720780 64.884116 65.036003 65.176428 65.305286
65.422574 65.528212 65.622203 65.704490 65.775078 65.833927 65.881044 65.916405
65.940013 65.951859 65.951945 65.940272 65.916838 65.881660 65.834732 65.776083
65.705707 65.623649 65.529902 65.424530 65.307528 65.178983 65.038898 64.887381
64.724446 64.550233 64.364768 64.168222 63.960641 63.742232 63.513063 63.273377
63.023267 62.763017 62.492747 62.212780 61.923264 61.624563 61.316851 61.000529
60.675796 60.343090 60.002630 59.654885 59.300091 58.938742 58.571088 58.197638
57.818650 57.434646 57.045883 56.652887 56.255909 55.855472 55.451818 55.045457
54.636616 54.225789 53.813180 53.399263 52.984217 52.568489 52.152230 51.735857
51.319491 50.903517 50.488024 50.073361 49.659588 49.247015 48.835673 48.425833
48.017496 47.610898 47.206010 46.803030 46.401905 46.002794 45.605623 45.210515
44.817372 44.426285 44.037139 43.649990 43.264709 42.881321 42.499683 42.119794
41.741499 41.364771 40.989449 40.615480 40.242701 39.871035 39.500318 39.130455
38.761283 38.392689 38.024514 37.656631 37.288889
37.666667 38.073424 38.480326 38.887524 39.295149 39.703363 40.112278 40.522062
40.932809 41.344687 41.757769 42.172222 42.588094 43.005547 43.424605 43.845420
44.267987 44.692448 45.118766 45.547069 45.977287 46.409530 46.843693 47.279865
47.717904 48.157876 48.599600 49.043116 49.488203 49.934872 50.382863 50.832154
51.282444 51.733681 52.185523 52.637883 53.090379 53.542893 53.995004 54.446561
54.897108 55.346461 55.794134 56.239914 56.683288 57.124018 57.561568 57.995681
58.425805 58.851668 59.272709 59.688649 60.098926 60.503257 60.901090 61.292147
61.675889 62.052051 62.420118 62.779840 63.130735 63.472574 63.804910 64.127543
64.440065 64.742305 65.033900 65.314707 65.584408 65.842892 66.089885 66.325304
66.548917 66.760667 66.960363 67.147971 67.323335 67.486439 67.637159 67.775493
67.901346 68.014724 68.115556 68.203853 68.279564 68.342702 68.393232 68.431164
68.456481 68.469188 68.469280 68.456758 68.431630 68.393892 68.343566 68.280643
68.205160 68.117107 68.016538 67.903444 67.777900 67.639900 67.489544 67.326837
67.151904 66.964765 66.765579 66.554382 66.331370 66.096601 65.850313 65.592588
65.323708 65.043783 64.753139 64.451919 64.140491 63.819029 63.487946 63.147444
62.797977 62.439774 62.073324 61.698879 61.316959 60.927833 60.532045 60.129874
59.721882 59.308351 58.889850 58.466661 58.039351 57.608194 57.173749 56.736274
56.296314 55.854106 55.410173 54.964726 54.518262 54.070962 53.623293 53.175403
52.727723 52.280371 51.833737 51.387905 50.943226 50.499752 50.057792 49.617363
49.178736 48.741896 48.307073 47.874221 47.443532 47.014933 46.588575 46.164363
45.742409 45.322598 44.905006 44.489498 44.076118 43.664715 43.255301 42.847714
42.441934 42.037792 41.635242 41.234107 40.834315 40.435689 40.038134 39.641472
39.245590 38.850312 38.455507 38.061008 37.666667
38.044444 38.478721 38.913159 39.347907 39.783136 40.218979 40.655613 41.093153
41.531779 41.971585 42.412750 42.855344 43.299545 43.745393 44.193061 44.642559
45.094048 45.547510 46.003090 46.460735 46.920573 47.382516 47.846670 48.312909
48.781315 49.251719 49.724180 50.198486 50.674665 51.152461 51.631870 52.112594
52.594593 53.077525 53.561314 54.045574 54.530193 55.014742 55.499074 55.982718
56.465491 56.946888 57.426691 57.904361 58.379653 58.851999 59.321128 59.786453
60.247682 60.704214 61.155745 61.601670 62.041676 62.475163 62.901820 63.321059
63.732579 64.135813 64.530476 64.916031 65.292216 65.658531 66.014741 66.360388
66.695270 67.018976 67.331337 67.631990 67.920801 68.197457 68.461855 68.713731
68.953014 69.179484 69.393096 69.593672 69.781190 69.955507 70.116620 70.264419