# vtk DataFile Version 3.0
Steady-state temperature (Jacobi)
ASCII
DATASET STRUCTURED_POINTS
DIMENSIONS 181 181 1
ORIGIN 0.0 0.0 0.0
SPACING 0.05 0.05 1.0
POINT_DATA 32761
SCALARS Temperature float 1
LOOKUP_TABLE default
32.000000 32.000000 32.000000 32.000000 32.000000 32.000000 32.000000 32.000000
32.000000 32.000000 32.000000 32.000000 32.000000 32.000000 32.000000 32.000000
32.000000 32.000000 32.000000 32.000000 32.000000 32.000000 32.000000 32.000000
32.000000 32.000000 32.000000 32.000000 32.000000 32.000000 32.000000 32.000000
32.000000 32.000000 32.000000 32.000000 32.000000 32.000000 32.000000 32.000000
32.000000 32.000000 32.000000 32.000000 32.000000 32.000000 32.000000 32.000000
32.000000 32.000000 32.000000 32.000000 32.000000 32.000000 32.000000 32.000000
32.000000 32.000000 32.000000 32.000000 32.000000 32.000000 32.000000 32.000000
32.000000 32.000000 32.000000 32.000000 32.000000 32.000000 32.000000 32.000000
32.000000 32.000000 32.000000 32.000000 32.000000 32.000000 32.000000 32.000000
32.000000 32.000000 32.000000 32.000000 32.000000 32.000000 32.000000 32.000000
32.000000 32.000000 32.000000 32.000000 32.000000 32.000000 32.000000 32.000000
32.000000 32.000000 32.000000 32.000000 32.000000 32.000000 32.000000 32.000000
32.000000 32.000000 32.000000 32.000000 32.000000 32.000000 32.000000 32.000000
32.000000 32.000000 32.000000 32.000000 32.000000 32.000000 32.000000 32.000000
32.000000 32.000000 32.000000 32.000000 32.000000 32.000000 32.000000 32.000000
32.000000 32.000000 32.000000 32.000000 32.000000 32.000000 32.000000 32.000000
32.000000 32.000000 32.000000 32.000000 32.000000 32.000000 32.000000 32.000000
32.000000 32.000000 32.000000 32.000000 32.000000 32.000000 32.000000 32.000000
32.000000 32.000000 32.000000 32.000000 32.000000 32.000000 32.000000 32.000000
32.000000 32.000000 32.000000 32.000000 32.000000 32.000000 32.000000 32.000000
32.000000 32.000000 32.000000 32.000000 32.000000 32.000000 32.000000 32.000000
32.000000 32.000000 32.000000 32.000000 32.000000
32.377778 32.405380 32.432990 32.460615 32.488263 32.515943 32.543659 32.571422
32.599235 32.627108 32.655043 32.683051 32.711132 32.739295 32.767540 32.795876
32.824300 32.852820 32.881432 32.910143 32.938947 32.967850 32.996843 33.025930
33.055102 33.084361 33.113696 33.143106 33.172577 33.202109 33.231685 33.261302
33.290942 33.320599 33.350253 33.379897 33.409508 33.439078 33.468580 33.498007
33.527329 33.556537 33.585600 33.614506 33.643225 33.671743 33.700028 33.728065
33.755822 33.783284 33.810418 33.837208 33.863621 33.889642 33.915238 33.940393
33.965076 33.989272 34.012950 34.036097 34.058683 34.080694 34.102104 34.122901
34.143060 34.162569 34.181405 34.199560 34.217013 34.233755 34.249769 34.265047
34.279574 34.293344 34.306343 34.318568 34.330007 34.340656 34.350506 34.359554
34.367793 34.375222 34.381834 34.387628 34.392599 34.396748 34.400070 34.402566
34.404234 34.405073 34.405083 34.404265 34.402618 34.400144 34.396844 34.392718
34.387771 34.382002 34.375416 34.368016 34.359806 34.350789 34.340973 34.330360
34.318960 34.306776 34.293821 34.280098 34.265622 34.250397 34.234442 34.217761
34.200374 34.182290 34.163528 34.144099 34.124026 34.103319 34.082005 34.060095
34.037617 34.014585 33.991027 33.966959 33.942411 33.917398 33.891952 33.866089
33.839842 33.813226 33.786276 33.759006 33.731450 33.703624 33.675560 33.647273
33.618795 33.590140 33.561340 33.532406 33.503369 33.474239 33.445045 33.415795
33.386517 33.357219 33.327923 33.298637 33.269381 33.240161 33.210997 33.181889
33.152856 33.123898 33.095030 33.066251 33.037574 33.008995 32.980526 32.952161
32.923909 32.895764 32.867732 32.839807 32.811992 32.784279 32.756671 32.729159
32.701742 32.674412 32.647167 32.619997 32.592900 32.565866 32.538889 32.511960
32.485074 32.458220 32.431392 32.404581 32.377778
32.755556 32.810765 32.865990 32.921245 32.976548 33.031911 33.087352 33.142880
33.198515 33.254264 33.310146 33.366164 33.422337 33.478667 33.535170 33.591845
33.648707 33.705751 33.762991 33.820418 33.878043 33.935853 33.993857 34.052038
34.110403 34.168928 34.227619 34.286447 34.345413 34.404487 34.463664 34.522909
34.582215 34.641541 34.700877 34.760178 34.819430 34.878583 34.937620 34.996488
35.055166 35.113596 35.171756 35.229585 35.287058 35.344110 35.400714 35.456806
35.512356 35.567297 35.621599 35.675196 35.728057 35.780115 35.831339 35.881666
35.931064 35.979471 36.026858 36.073165 36.118365 36.162400 36.205247 36.246852
36.287192 36.326220 36.363915 36.400233 36.435157 36.468648 36.500692 36.531254
36.560322 36.587866 36.613877 36.638330 36.661217 36.682517 36.702225 36.720323
36.736809 36.751667 36.764895 36.776483 36.786430 36.794727 36.801374 36.806366
36.809702 36.811381 36.811402 36.809765 36.806470 36.801522 36.794919 36.786668
36.776769 36.765231 36.752055 36.737253 36.720827 36.702792 36.683151 36.661923
36.639113 36.614743 36.588819 36.561370 36.532403 36.501949 36.470021 36.436653
36.401861 36.365684 36.328139 36.289271 36.249100 36.207676 36.165021 36.121189
36.076205 36.030127 35.982982 35.934830 35.885702 35.835660 35.784735 35.732992
35.680464 35.627216 35.573280 35.518723 35.463576 35.407906 35.351743 35.295153
35.238163 35.180837 35.123202 35.065319 35.007211 34.948937 34.890517 34.832005
34.773419 34.714809 34.656188 34.597604 34.539067 34.480617 34.422261 34.364037
34.305947 34.248023 34.190266 34.132701 34.075326 34.018163 33.961205 33.904470
33.847949 33.791655 33.735576 33.679722 33.624078 33.568649 33.513420 33.458392
33.403548 33.348885 33.294385 33.240043 33.185840 33.131768 33.077806 33.023946
32.970166 32.916455 32.862793 32.809166 32.755556
33.133333 33.216160 33.299011 33.381908 33.464874 33.547935 33.631107 33.714418
33.797882 33.881525 33.965359 34.049409 34.133681 34.218201 34.302969 34.388009
34.473317 34.558915 34.644791 34.730966 34.817421 34.904175 34.991202 35.078515
35.166085 35.253919 35.341980 35.430273 35.518752 35.607415 35.696213 35.785139
35.874133 35.963184 36.052226 36.141243 36.230162 36.318961 36.407561 36.495935
36.583998 36.671719 36.759008 36.845828 36.932087 37.017743 37.102702 37.186918
37.270295 37.352785 37.434290 37.514763 37.594105 37.672267 37.749154 37.824716
37.898861 37.971541 38.042665 38.112191 38.180031 38.246145 38.310452 38.372914
38.433458 38.492049 38.548620 38.603142 38.655553 38.705828 38.753914 38.799790
38.843408 38.884753 38.923783 38.960486 38.994826 39.026796 39.056365 39.083528
39.108261 39.130560 39.150407 39.167798 39.182720 39.195172 39.205144 39.212635
39.217640 39.220159 39.220190 39.217734 39.212792 39.205365 39.195460 39.183077
39.168226 39.150910 39.131143 39.108928 39.084284 39.057215 39.027747 38.995885
38.961660 38.925081 38.886184 38.844980 38.801514 38.755800 38.707887 38.657797
38.605584 38.551273 38.494927 38.436575 38.376287 38.314095 38.250076 38.184267
38.116751 38.047568 37.976806 37.904509 37.830769 37.755633 37.679197 37.601507
37.522664 37.442714 37.361759 37.279845 37.197073 37.113489 37.029193 36.944229
36.858693 36.772628 36.686127 36.599228 36.512020 36.424536 36.336861 36.249024
36.161104 36.073123 35.985155 35.897217 35.809375 35.721642 35.634077 35.546687
35.459523 35.372588 35.285926 35.199533 35.113447 35.027660 34.942203 34.857063
34.772264 34.687788 34.603654 34.519841 34.436361 34.353190 34.270334 34.187767
34.105489 34.023472 33.941711 33.860178 33.778864 33.697737 33.616785 33.535978
33.455299 33.374718 33.294215 33.213761 33.133333
33.511111 33.621571 33.732063 33.842617 33.953265 34.064035 34.174962 34.286066
34.397384 34.508933 34.620748 34.732840 34.845243 34.957964 35.071034 35.184451
35.298246 35.412409 35.526967 35.641903 35.757241 35.872953 35.989058 36.105522
36.222358 36.339522 36.457020 36.574800 36.692863 36.811145 36.929640 37.048276
37.167040 37.285850 37.404685 37.523456 37.642133 37.760618 37.878877 37.996800
38.114348 38.231405 38.347925 38.463786 38.578935 38.693247 38.806664 38.919057
39.030365 39.140457 39.249270 39.356670 39.462595 39.566913 39.669560 39.770407
39.869393 39.966391 40.061343 40.154130 40.244695 40.332926 40.418771 40.502125
40.582943 40.661127 40.736638 40.809388 40.879342 40.946422 41.010600 41.071806
41.130017 41.185175 41.237259 41.286221 41.332045 41.374690 41.414145 41.450377
41.483377 41.513120 41.539599 41.562794 41.582702 41.599309 41.612613 41.622604
41.629281 41.632640 41.632682 41.629406 41.622812 41.612908 41.599693 41.583178
41.563365 41.540270 41.513896 41.484266 41.451384 41.415279 41.375958 41.333457
41.287787 41.238990 41.187082 41.132113 41.074104 41.013113 40.949167 40.882333
40.812643 40.740175 40.664964 40.587098 40.506621 40.423628 40.338166 40.250343
40.160209 40.067880 39.973411 39.876923 39.778477 39.678199 39.576151 39.472465
39.367204 39.260501 39.152421 39.043098 38.932595 38.821046 38.708512 38.595124
38.480939 38.366085 38.250616 38.134654 38.018246 37.901509 37.784484 37.667282
37.549935 37.432547 37.315143 37.197818 37.080590 36.963545 36.846693 36.730110
36.613801 36.497831 36.382197 36.266956 36.152099 36.037671 35.923659 35.810098
35.696969 35.584299 35.472064 35.360282 35.248924 35.138001 35.027480 34.917364
34.807619 34.698240 34.589189 34.480457 34.372004 34.263815 34.155849 34.048086
33.940487 33.833025 33.725663 33.618370 33.511111
33.888889 34.027003 34.165156 34.303389 34.441737 34.580244 34.718940 34.857869
34.997055 35.136545 35.276355 35.416529 35.557079 35.698046 35.839432 35.981277
36.123575 36.266361 36.409619 36.553381 36.697619 36.842361 36.987567 37.133259
37.279387 37.425965 37.572930 37.720289 37.867969 38.015967 38.164198 38.312650
38.461227 38.609908 38.758585 38.907227 39.055715 39.204011 39.351985 39.499588
39.646681 39.793209 39.939024 40.084062 40.228169 40.371275 40.513220 40.653930
40.793241 40.931074 41.067263 41.201730 41.334307 41.464914 41.593389 41.719650
41.843540 41.964981 42.083820 42.199984 42.313327 42.423783 42.531214 42.635560
42.736694 42.834561 42.929048 43.020106 43.107633 43.191589 43.271882 43.348480
43.421303 43.490325 43.555479 43.616743 43.674060 43.727417 43.776764 43.822093
43.863365 43.900573 43.933687 43.962703 43.987598 44.008372 44.025007 44.037504
44.045854 44.050056 44.050108 44.046010 44.037766 44.025376 44.008851 43.988192
43.963416 43.934525 43.901543 43.864475 43.823352 43.778181 43.729002 43.675825
43.618700 43.557641 43.492709 43.423922 43.351352 43.275024 43.195020 43.111372
43.024175 42.933468 42.839356 42.741888 42.641179 42.537284 42.430333 42.320386
42.207582 42.091989 41.973754 41.852952 41.729736 41.604186 41.476461 41.346642
41.214895 41.081301 40.946027 40.809155 40.670852 40.531197 40.390355 40.248403
40.105502 39.961722 39.817221 39.672061 39.526393 39.380273 39.233843 39.087149
38.940325 38.793410 38.646524 38.499698 38.353043 38.206577 38.060402 37.914527
37.769040 37.623942 37.479310 37.335135 37.191482 37.048335 36.905746 36.763693
36.622217 36.481288 36.340935 36.201125 36.061875 35.923147 35.784950 35.647239
35.510015 35.373232 35.236880 35.100912 34.965310 34.830025 34.695034 34.560287
34.425754 34.291387 34.157151 34.022998 33.888889
34.266667 34.432459 34.598301 34.764235 34.930315 35.096578 35.263080 35.429851
35.596948 35.764396 35.932248 36.100522 36.269271 36.438501 36.608264 36.778556
36.949424 37.120854 37.292887 37.465497 37.638721 37.812518 37.986917 38.161867
38.337388 38.513413 38.689955 38.866933 39.044349 39.222108 39.400202 39.578521
39.757047 39.935656 40.114318 40.292895 40.471346 40.649522 40.827369 41.004725
41.181529 41.357607 41.532886 41.707185 41.880423 42.052409 42.223058 42.392172
42.559660 42.725323 42.889064 43.050683 43.210083 43.367066 43.521533 43.673291
43.822244 43.968204 44.111080 44.250693 44.386956 44.519701 44.648848 44.774242
44.895811 45.013410 45.126979 45.236387 45.341582 45.442446 45.538937 45.630953
45.718458 45.801365 45.879646 45.953227 46.022087 46.086164 46.145444 46.199876
46.249451 46.294127 46.333900 46.368739 46.398639 46.423579 46.443558 46.458562
46.468589 46.473634 46.473696 46.468776 46.458875 46.444000 46.424154 46.399351
46.369594 46.334906 46.295292 46.250783 46.201386 46.147144 46.088066 46.024204
45.955575 45.882241 45.804224 45.721600 45.634398 45.542706 45.446561 45.346067
45.241268 45.132282 45.019163 44.902042 44.780983 44.656132 44.527559 44.395425
44.259809 44.120882 43.978731 43.833537 43.685393 43.534488 43.380920 43.224884
43.066480 42.905907 42.743265 42.578756 42.412476 42.244627 42.075303 41.904702
41.732910 41.560122 41.386418 41.211983 41.036889 40.861313 40.685317 40.509065
40.332610 40.156106 39.979593 39.803211 39.626990 39.451057 39.275429 39.100219
38.925433 38.751171 38.577427 38.404287 38.231735 38.059841 37.888582 37.718014
37.548105 37.378896 37.210349 37.042493 36.875283 36.708734 36.542798 36.377478
36.212721 36.048519 35.884818 35.721599 35.558805 35.396411 35.234357 35.072610
34.911112 34.749822 34.588683 34.427649 34.266667
34.644444 34.837947 35.031504 35.225175 35.419010 35.613070 35.807399 36.002060
36.197088 36.392546 36.588461 36.784894 36.981862 37.179424 37.377584 37.576400
37.775861 37.976020 38.176853 38.378407 38.580643 38.783601 38.987227 39.191550
39.396502 39.602101 39.808263 40.014996 40.222199 40.429866 40.637880 40.846225
41.054764 41.263469 41.472187 41.680877 41.889370 42.097612 42.305419 42.512724
42.719330 42.925159 43.130001 43.333766 43.536237 43.737314 43.936771 44.134501
44.330274 44.523977 44.715376 44.904356 45.090684 45.274244 45.454806 45.632255
45.806368 45.977033 46.144037 46.307273 46.466537 46.621734 46.772671 46.919261
47.061329 47.198795 47.331501 47.459378 47.582284 47.700163 47.812887 47.920412
48.022626 48.119495 48.210924 48.296886 48.377302 48.452154 48.521374 48.584952
48.642834 48.695012 48.741446 48.782131 48.817037 48.846161 48.869483 48.887003
48.898708 48.904598 48.904671 48.898926 48.887368 48.869999 48.846832 48.817868
48.783129 48.742620 48.696371 48.644388 48.586713 48.523356 48.454371 48.379772
48.299625 48.213950 48.122830 48.026291 47.924430 47.817283 47.704963 47.587516
47.465071 47.337685 47.205505 47.068597 46.927124 46.781166 46.630900 46.476416
46.317906 46.155469 45.989312 45.819540 45.646371 45.469917 45.290405 45.107949
44.922783 44.735023 44.544907 44.352549 44.158186 43.961932 43.764021 43.564559
43.363777 43.161773 42.958769 42.754857 42.550246 42.345017 42.139370 41.933372
41.727210 41.520938 41.314727 41.108619 40.902771 40.697209 40.492073 40.287378
40.083247 39.879681 39.676785 39.474550 39.273065 39.072306 38.872348 38.673156
38.474789 38.277203 38.080440 37.884451 37.689261 37.494813 37.301121 37.108122
36.915815 36.724134 36.533067 36.342544 36.152542 35.962991 35.773856 35.585068
35.396584 35.208336 35.020272 34.832327 34.644444
35.022222 35.243467 35.464777 35.686214 35.907848 36.129732 36.351938 36.574512
36.797527 37.021019 37.245061 37.469676 37.694937 37.920854 38.147496 38.374859
38.603006 38.831921 39.061660 39.292188 39.523554 39.755707 39.988687 40.222424
40.456947 40.692168 40.928103 41.164647 41.401800 41.639439 41.877551 42.115991
42.354734 42.593614 42.832591 43.071482 43.310230 43.548635 43.786624 44.023982
44.260622 44.496313 44.730956 44.964306 45.196254 45.426543 45.655055 45.881527
46.105830 46.327699 46.547001 46.763467 46.976964 47.187224 47.394113 47.597371
47.796866 47.992347 48.183689 48.370650 48.553113 48.730853 48.903762 49.071630
49.234361 49.391763 49.543753 49.690158 49.830907 49.965846 50.094917 50.217987
50.335008 50.445865 50.550524 50.648886 50.740926 50.826563 50.905779 50.978509
51.044742 51.104425 51.157552 51.204085 51.244019 51.277327 51.304008 51.324043
51.337432 51.344168 51.344251 51.337681 51.324460 51.304597 51.278093 51.244968
51.205225 51.158893 51.105976 51.046516 50.980521 50.908043 50.829096 50.743747
50.652014 50.553981 50.449675 50.339194 50.222577 50.099939 49.971329 49.836884
49.696662 49.550820 49.399429 49.242665 49.080613 48.913468 48.741326 48.564400
48.382799 48.196752 48.006377 47.811917 47.613500 47.411380 47.205689 46.996692
46.784523 46.569452 46.351615 46.131284 45.908590 45.683807 45.457061 45.228618
44.998599 44.767263 44.534721 44.301220 44.066859 43.831876 43.596353 43.360514
43.124429 42.888302 42.652190 42.416280 42.180611 41.945353 41.710529 41.476290
41.242645 41.009723 40.777521 40.546148 40.315585 40.085925 39.857136 39.629290
39.402345 39.176356 38.951270 38.727124 38.503857 38.281491 38.059957 37.839260
37.619327 37.400149 37.181649 36.963804 36.746535 36.529808 36.313542 36.097692
35.882178 35.666947 35.451921 35.237037 35.022222
35.400000 35.649026 35.898125 36.147373 36.396836 36.646595 36.896707 37.147254
37.398282 37.649877 37.902070 38.154946 38.408525 38.662886 38.918034 39.174045
39.430909 39.688692 39.947367 40.206995 40.467527 40.729015 40.991392 41.254695
41.518839 41.783848 42.049614 42.316148 42.583320 42.851124 43.119411 43.388157
43.657189 43.926468 44.195800 44.465128 44.734238 45.003054 45.271342 45.539013
45.805812 46.071634 46.336211 46.599422 46.860985 47.120768 47.378478 47.633973
47.886954 48.137271 48.384622 48.628853 48.869661 49.106892 49.340247 49.569576
49.794586 50.015131 50.230933 50.441854 50.647628 50.848128 51.043107 51.232451
51.415932 51.593449 51.764796 51.929887 52.088538 52.240676 52.386141 52.524875
52.656737 52.781684 52.899598 53.010443 53.114123 53.210615 53.299836 53.381773
53.456361 53.523591 53.583413 53.635824 53.680787 53.718300 53.748337 53.770900
53.785974 53.793560 53.793653 53.786254 53.771369 53.748999 53.719161 53.681854
53.637106 53.584920 53.525335 53.458356 53.384035 53.302382 53.213463 53.117295
53.013961 52.903485 52.785968 52.661445 52.530036 52.391788 52.246843 52.095259
51.937201 51.772742 51.602070 51.425270 51.242554 51.054022 50.859906 50.660321
50.455518 50.245625 50.030910 49.811513 49.587716 49.359667 49.127661 48.891849
48.652535 48.409873 48.164172 47.915583 47.664415 47.410817 47.155095 46.897388
46.637996 46.377050 46.114837 45.851478 45.587245 45.322243 45.056732 44.790801
44.524689 44.258469 43.992362 43.726423 43.460850 43.195683 42.931099 42.667117
42.403895 42.141434 41.879870 41.619190 41.359504 41.100787 40.843128 40.586486
40.330931 40.076411 39.822973 39.570556 39.319189 39.068800 38.819403 38.570917
38.323339 38.076583 37.830630 37.585393 37.340837 37.096872 36.853452 36.610487
36.367919 36.125660 35.883642 35.641781 35.400000
35.777778 36.054626 36.331560 36.608654 36.886000 37.163666 37.441744 37.720293
37.999407 38.279130 38.559558 38.840720 39.122710 39.405542 39.689303 39.973992
40.259688 40.546373 40.834118 41.122883 41.412729 41.703595 41.995530 42.288452
42.582394 42.877251 43.173042 43.469636 43.767037 44.065088 44.363775 44.662918
44.962483 45.262264 45.562209 45.862090 46.161833 46.461188 46.760061 47.058181
47.355437 47.651538 47.946355 48.239582 48.531074 48.820512 49.107738 49.392423
49.674400 49.953333 50.229049 50.501209 50.769640 51.034004 51.294127 51.549680
51.800494 52.046249 52.286785 52.521797 52.751136 52.974517 53.191801 53.402726
53.607169 53.804891 53.995784 54.179635 54.356354 54.525751 54.687754 54.842196
54.989023 55.128092 55.259362 55.382714 55.498117 55.605476 55.704769 55.795920
55.878915 55.953694 56.020252 56.078541 56.128560 56.170276 56.203689 56.228778
56.245545 56.253980 56.254083 56.245856 56.229299 56.204424 56.171231 56.129744
56.079964 56.021925 55.955631 55.881131 55.798431 55.707596 55.608639 55.501639
55.386619 55.263679 55.132849 54.994251 54.847928 54.694025 54.532598 54.363818
54.187757 54.004609 53.814464 53.617541 53.413946 53.203924 52.987598 52.765235
52.536973 52.303103 52.063774 51.819296 51.569830 51.315699 51.057073 50.794288
50.527516 50.257100 49.983214 49.706203 49.426239 49.143665 48.858644 48.571516
48.282433 47.991725 47.699532 47.406169 47.111763 46.816611 46.520822 46.224675
45.928260 45.631835 45.335472 45.039403 44.743682 44.448518 44.153943 43.860142
43.567129 43.275063 42.983941 42.693896 42.404907 42.117085 41.830391 41.544914
41.260599 40.977513 40.695589 40.414872 40.135284 39.856848 39.579480 39.303182
39.027863 38.753508 38.480020 38.207368 37.935452 37.664227 37.393591 37.123485
36.853809 36.584492 36.315437 36.046564 35.777778
36.155556 36.460273 36.765081 37.070077 37.375341 37.680976 37.987053 38.293676
38.600904 38.908840 39.217529 39.527075 39.837504 40.148915 40.461319 40.774808
41.089371 41.405095 41.721948 42.040003 42.359207 42.679621 43.001168 43.323894
43.647697 43.972606 44.298494 44.625372 44.953084 45.281624 45.610807 45.940607
46.270812 46.601373 46.932054 47.262782 47.593293 47.923497 48.253102 48.581997
48.909869 49.236585 49.561813 49.885402 50.207002 50.526447 50.843375 51.157605
51.468766 51.776669 52.080938 52.381380 52.677618 52.969456 53.256526 53.538634
53.815419 54.086698 54.352125 54.611524 54.864571 55.111104 55.350819 55.583573
55.809088 56.027236 56.237768 56.440575 56.635436 56.822262 57.000859 57.171157
57.332990 57.486304 57.630959 57.766917 57.894063 58.012370 58.121745 58.222173
58.313579 58.395957 58.469248 58.533451 58.588524 58.634468 58.671254 58.698884
58.717342 58.726630 58.726744 58.717684 58.699456 58.672062 58.635519 58.589826
58.535015 58.471087 58.398086 58.316015 58.224934 58.124852 58.015847 57.897934
57.771211 57.635704 57.491533 57.338736 57.177458 57.007752 56.829790 56.643641
56.449505 56.247469 56.037761 55.820490 55.595910 55.364148 55.125487 54.880072
54.628211 54.370067 54.105969 53.836094 53.560791 53.280246 52.994825 52.704720
52.410308 52.111784 51.809530 51.503739 51.194794 50.882883 50.568384 50.251477
49.932529 49.611709 49.289370 48.965664 48.640928 48.315296 47.989085 47.662408
47.335560 47.008632 46.681894 46.355415 46.029440 45.704015 45.379358 45.055493
44.732610 44.410713 44.089964 43.770347 43.451997 43.134880 42.819103 42.504617
42.191503 41.879695 41.569252 41.260094 40.952256 40.645649 40.340284 40.036064
39.732981 39.430929 39.129883 38.829732 38.530433 38.231873 37.933995 37.636685
37.339872 37.043444 36.747317 36.451386 36.155556
36.533333 36.865966 37.198703 37.531639 37.864884 38.198524 38.532672 38.867401
39.202826 39.539005 39.876053 40.214010 40.552988 40.893010 41.234181 41.576503
41.920075 42.264876 42.610994 42.958384 43.307121 43.657135 44.008487 44.361080
44.714957 45.069991 45.426209 45.783455 46.141733 46.500859 46.860813 47.221382
47.582522 47.943991 48.305720 48.667437 49.029051 49.390259 49.750948 50.110787
50.469641 50.827155 51.183171 51.537316 51.889411 52.239066 52.586087 52.930070
53.270809 53.607893 53.941107 54.270037 54.594467 54.913984 55.228372 55.537229
55.840344 56.137329 56.427982 56.711936 56.989003 57.258838 57.521272 57.775985
58.022830 58.261515 58.491915 58.713769 58.926973 59.131299 59.326663 59.512869
59.689853 59.857449 60.015609 60.164198 60.303183 60.432451 60.551985 60.661696
60.761573 60.851548 60.931618 61.001732 61.061890 61.112057 61.152236 61.182404
61.202563 61.212704 61.212828 61.202935 61.183027 61.153117 61.113202 61.063309
61.003436 60.933622 60.853868 60.764227 60.664704 60.555372 60.436240 60.307402
60.168877 60.020781 59.863148 59.696117 59.519737 59.334177 59.139505 58.935918
58.723503 58.502491 58.272990 58.035261 57.789434 57.535804 57.274519 57.005905
56.730130 56.447546 56.158341 55.862888 55.561389 55.254238 54.941647 54.624023
54.301584 53.974746 53.643728 53.308950 52.970627 52.629175 52.284802 51.937917
51.588715 51.237591 50.884725 50.530496 50.175062 49.818784 49.461797 49.104437
48.746818 48.389249 48.031818 47.674807 47.318279 46.962486 46.607467 46.253445
45.900434 45.548625 45.198012 44.848756 44.500827 44.154358 43.809302 43.465759
43.123666 42.783098 42.443974 42.106343 41.770111 41.435304 41.101816 40.769648
40.438689 40.108917 39.780214 39.452540 39.125772 38.799853 38.474659 38.150117
37.826104 37.502532 37.179281 36.856253 36.533333
36.911111 37.271711 37.632421 37.993359 38.354624 38.716340 39.078593 39.441511
39.805166 40.169683 40.535119 40.901598 41.269157 41.637914 42.007886 42.379185
42.751802 43.125840 43.501266 43.878169 44.256491 44.636305 45.017523 45.400202
45.784224 46.169626 46.556258 46.944137 47.333079 47.723077 48.113916 48.505563
48.897770 49.290477 49.683403 50.076462 50.469341 50.861928 51.253879 51.645054
52.035084 52.423803 52.810816 53.195936 53.578745 53.959038 54.336379 54.710547
55.081096 55.447793 55.810184 56.168031 56.520880 56.868492 57.210420 57.546427
57.876081 58.199152 58.515227 58.824091 59.125354 59.418820 59.704126 59.981098
60.249404 60.508893 60.759270 61.000405 61.232038 61.454066 61.666263 61.868548
62.060730 62.242749 62.414446 62.575780 62.726620 62.866943 62.996643 63.115707
63.224054 63.321681 63.408525 63.484588 63.549827 63.604244 63.647810 63.680530
63.702388 63.713386 63.713520 63.702790 63.681205 63.648763 63.605482 63.551362
63.486433 63.410693 63.324191 63.226926 63.118962 63.000307 62.871043 62.731186
62.580844 62.420043 62.248917 62.067508 61.875981 61.674395 61.462948 61.241720
61.010942 60.770718 60.521315 60.262861 59.995658 59.719858 59.435797 59.143652
58.843790 58.536408 58.221903 57.900490 57.572589 57.238428 56.898448 56.552885
56.202192 55.846612 55.486601 55.122401 54.754470 54.383042 54.008570 53.631277
53.251603 52.869754 52.486155 52.100993 51.714670 51.327350 50.939411 50.550992
50.162443 49.773875 49.385609 48.997728 48.610522 48.224047 47.838559 47.454087
47.070854 46.688866 46.308309 45.929167 45.551594 45.175549 44.801156 44.428355
44.057238 43.687726 43.319883 42.953615 42.588959 42.225805 41.864167 41.503923
41.145063 40.787458 40.431075 40.075780 39.721519 39.368156 39.015620 38.663773
38.312529 37.961751 37.611340 37.261164 36.911111
37.288889 37.677506 38.066248 38.455230 38.844584 39.234413 39.624853 40.015993
40.407971 40.800858 41.194791 41.589823 41.986087 42.383613 42.782527 43.182838
43.584661 43.987977 44.392893 44.799359 45.207467 45.617138 46.028446 46.441282
46.855697 47.271549 47.688868 48.107477 48.527380 48.948365 49.370411 49.793268
50.216886 50.640982 51.065474 51.490045 51.914583 52.338736 52.762364 53.185081
53.606721 54.026867 54.445325 54.861656 55.275641 55.686817 56.094949 56.499556
56.900387 57.296952 57.688990 58.076008 58.457739 58.833694 59.203609 59.567004
59.923623 60.273003 60.614901 60.948880 61.274712 61.591990 61.900509 62.199896
62.489970 62.770395 63.041017 63.301539 63.551836 63.791647 64.020875 64.239298
64.446843 64.643325 64.828693 65.002795 65.165600 65.316986 65.456935 65.585354
65.702236 65.807508 65.901174 65.983179 66.053529 66.112188 66.159163 66.194430
66.217995 66.229849 66.229993 66.218428 66.195156 66.160187 66.113520 66.055180
65.985162 65.903506 65.810207 65.705324 65.588855 65.460876 65.321395 65.170511
65.008242 64.834714 64.649959 64.454135 64.247294 64.029624 63.801202 63.562252
63.312875 63.053335 62.783759 62.504450 62.215562 61.917438 61.610259 61.294404
60.970079 60.637698 60.297489 59.949895 59.595161 59.233755 58.865936 58.492189
58.112779 57.728203 57.338727 56.944851 56.546837 56.145183 55.740140 55.332195
54.921584 54.508778 54.093994 53.677680 53.260031 52.841468 52.422159 52.002496
51.582619 51.162888 50.743411 50.324516 49.906281 49.488997 49.072712 48.657682
48.243927 47.831665 47.420889 47.011783 46.604313 46.198628 45.794671 45.392557
44.992210 44.593711 44.196966 43.802026 43.408779 43.017251 42.627316 42.238971
41.852081 41.466620 41.082445 40.699505 40.317655 39.936823 39.556862 39.177682
38.799136 38.421119 38.043488 37.666124 37.288889
37.666667 38.083357 38.500178 38.917270 39.334752 39.752772 40.171434 40.590887
41.011220 41.432583 41.855044 42.278751 42.703751 43.130186 43.558077 43.987559
44.418627 44.851403 45.285854 45.722086 46.160035 46.599791 47.041256 47.484499
47.929387 48.375966 48.824067 49.273710 49.724687 50.176990 50.630374 51.084799
51.539981 51.995850 52.452082 52.908574 53.364965 53.821119 54.276639 54.731355
55.184838 55.636888 56.087043 56.535077 56.980502 57.423067 57.862263 58.297820
58.729214 59.156160 59.578126 59.994821 60.405711 60.810504 61.208674 61.599932
61.983770 62.359910 62.727866 63.087379 63.437991 63.779467 64.111384 64.433534
64.745533 65.047201 65.338199 65.618376 65.887436 66.145260 66.391593 66.626345
66.849304 67.060406 67.259474 67.446471 67.621253 67.783800 67.934001 68.071849
68.197259 68.310233 68.410709 68.498695 68.574147 68.637073 68.687447 68.725276
68.750544 68.763258 68.763412 68.751007 68.726052 68.688543 68.638498 68.575912
68.500816 68.413203 68.313120 68.200562 68.075594 67.938217 67.788518 67.626507
67.452298 67.265915 67.067504 66.857106 66.634901 66.400955 66.155485 65.898583
65.630509 65.351382 65.061506 64.761031 64.450304 64.129505 63.799024 63.459071
63.110074 62.752271 62.386126 62.011898 61.630081 61.240952 60.845029 60.442600
60.034198 59.620117 59.200897 58.776830 58.348457 57.916062 57.480176 57.041071
56.599263 56.155002 55.708786 55.260840 54.811635 54.361367 53.910477 53.459132
53.007737 52.556428 52.105573 51.655274 51.205863 50.757407 50.310199 49.864276
49.419890 48.977047 48.535961 48.096609 47.659168 47.223586 46.790004 46.358348
45.928721 45.501028 45.075340 44.651543 44.229674 43.809607 43.391348 42.974758
42.559816 42.146372 41.734382 41.323689 40.914226 40.505832 40.098419 39.691827
39.285948 38.880626 38.475737 38.071129 37.666667
38.044444 38.489259 38.934220 39.379466 39.825151 40.271398 40.718369 41.166168
41.614958 42.064826 42.515934 42.968347 43.422220 43.877595 44.334621 44.793310
45.253802 45.716080 46.180267 46.646316 47.114333 47.584236 48.056110 48.529837
49.005478 49.482876 49.962067 50.442853 50.925241 51.408992 51.894080 52.380225
52.867367 53.355184 53.843580 54.332192 54.820888 55.309264 55.797154 56.284112
56.769940 57.254157 57.736531 58.216550 58.693953 59.168202 59.639012 60.105823
60.568333 61.025969 61.478414 61.925093 62.365684 62.799614 63.226562 63.645971
64.057528 64.460696 64.855180 65.240471 65.616298 65.982188 66.337898 66.682996
67.017272 67.340338 67.652018 67.951972 68.240059 68.515986 68.779645 69.030790
69.269344 69.495104 69.708020 69.907928 70.094803 70.268515 70.429054 70.576324