# vtk DataFile Version 3.0
Steady-state temperature (Jacobi)
ASCII
DATASET STRUCTURED_POINTS
DIMENSIONS 181 181 1
ORIGIN 0.0 0.0 0.0
SPACING 0.05 0.05 1.0
POINT_DATA 32761
SCALARS Temperature float 1
LOOKUP_TABLE default
32.000000 32.000000 32.000000 32.000000 32.000000 32.000000 32.000000 32.000000
32.000000 32.000000 32.000000 32.000000 32.000000 32.000000 32.000000 32.000000
32.000000 32.000000 32.000000 32.000000 32.000000 32.000000 32.000000 32.000000
32.000000 32.000000 32.000000 32.000000 32.000000 32.000000 32.000000 32.000000
32.000000 32.000000 32.000000 32.000000 32.000000 32.000000 32.000000 32.000000
32.000000 32.000000 32.000000 32.000000 32.000000 32.000000 32.000000 32.000000
32.000000 32.000000 32.000000 32.000000 32.000000 32.000000 32.000000 32.000000
32.000000 32.000000 32.000000 32.000000 32.000000 32.000000 32.000000 32.000000
32.000000 32.000000 32.000000 32.000000 32.000000 32.000000 32.000000 32.000000
32.000000 32.000000 32.000000 32.000000 32.000000 32.000000 32.000000 32.000000
32.000000 32.000000 32.000000 32.000000 32.000000 32.000000 32.000000 32.000000
32.000000 32.000000 32.000000 32.000000 32.000000 32.000000 32.000000 32.000000
32.000000 32.000000 32.000000 32.000000 32.000000 32.000000 32.000000 32.000000
32.000000 32.000000 32.000000 32.000000 32.000000 32.000000 32.000000 32.000000
32.000000 32.000000 32.000000 32.000000 32.000000 32.000000 32.000000 32.000000
32.000000 32.000000 32.000000 32.000000 32.000000 32.000000 32.000000 32.000000
32.000000 32.000000 32.000000 32.000000 32.000000 32.000000 32.000000 32.000000
32.000000 32.000000 32.000000 32.000000 32.000000 32.000000 32.000000 32.000000
32.000000 32.000000 32.000000 32.000000 32.000000 32.000000 32.000000 32.000000
32.000000 32.000000 32.000000 32.000000 32.000000 32.000000 32.000000 32.000000
32.000000 32.000000 32.000000 32.000000 32.000000 32.000000 32.000000 32.000000
32.000000 32.000000 32.000000 32.000000 32.000000 32.000000 32.000000 32.000000
32.000000 32.000000 32.000000 32.000000 32.000000
32.377778 32.402095 32.426423 32.450775 32.475161 32.499594 32.524084 32.548643
32.573278 32.598005 32.622827 32.647760 32.672806 32.697979 32.723281 32.748725
32.774308 32.800046 32.825933 32.851981 32.878184 32.904554 32.931079 32.957772
32.984617 33.011626 33.038780 33.066090 33.093533 33.121118 33.148822 33.176648
33.204572 33.232595 33.260690 33.288857 33.317065 33.345312 33.373565 33.401820
33.430042 33.458225 33.486331 33.514354 33.542253 33.570022 33.597617 33.625031
33.652221 33.679178 33.705857 33.732249 33.758311 33.784032 33.809370 33.834314
33.858822 33.882884 33.906460 33.929540 33.952086 33.974087 33.995509 34.016343
34.036555 34.056138 34.075061 34.093318 34.110880 34.127744 34.143883 34.159293
34.173953 34.187860 34.200994 34.213353 34.224920 34.235695 34.245663 34.254824
34.263166 34.270689 34.277385 34.283252 34.288285 34.292483 34.295842 34.298362
34.300040 34.300876 34.300869 34.300020 34.298329 34.295796 34.292425 34.288215
34.283171 34.277293 34.270588 34.263056 34.254707 34.245540 34.235567 34.224790
34.213221 34.200863 34.187732 34.173830 34.159178 34.143777 34.127651 34.110804
34.093260 34.075026 34.056129 34.036577 34.016399 33.995604 33.974225 33.952272
33.929780 33.906759 33.883248 33.859257 33.834825 33.809965 33.784718 33.759094
33.733137 33.706859 33.680301 33.653475 33.626424 33.599158 33.571720 33.544120
33.516399 33.488565 33.460659 33.432688 33.404690 33.376670 33.348665 33.320679
33.292746 33.264866 33.237073 33.209365 33.181772 33.154290 33.126947 33.099738
33.072685 33.045783 33.019051 32.992482 32.966093 32.939873 32.913838 32.887975
32.862296 32.836788 32.811461 32.786299 32.761309 32.736475 32.711802 32.687274
32.662891 32.638637 32.614511 32.590497 32.566590 32.542776 32.519048 32.495390
32.471794 32.448247 32.424737 32.401251 32.377778
32.755556 32.804198 32.852864 32.901575 32.950358 32.999231 33.048222 33.097346
33.146631 33.196089 33.245749 33.295619 33.345728 33.396079 33.446702 33.497593
33.548782 33.600261 33.652057 33.704158 33.756590 33.809333 33.862411 33.915800
33.969521 34.023543 34.077884 34.132509 34.187430 34.242607 34.298050 34.353710
34.409595 34.465650 34.521880 34.578223 34.634680 34.691185 34.747733 34.804256
34.860743 34.917121 34.973379 35.029438 35.085283 35.140833 35.196071 35.250912
35.305339 35.359265 35.412670 35.465468 35.517637 35.569092 35.619811 35.669711
35.718770 35.766906 35.814097 35.860267 35.905395 35.949408 35.992286 36.033962
36.074418 36.113590 36.151465 36.187985 36.223136 36.256867 36.289168 36.319992
36.349332 36.377147 36.403432 36.428150 36.451300 36.472850 36.492798 36.511120
36.527814 36.542860 36.556258 36.567993 36.578064 36.586459 36.593181 36.598220
36.601577 36.603249 36.603236 36.601537 36.598154 36.593089 36.586343 36.577924
36.567830 36.556075 36.542658 36.527595 36.510886 36.492552 36.472595 36.451039
36.427888 36.403171 36.376891 36.349087 36.319762 36.288958 36.256683 36.222984
36.187871 36.151397 36.113575 36.074463 36.034075 35.992477 35.949685 35.905770
35.860748 35.814696 35.767633 35.719639 35.670735 35.621002 35.570463 35.519204
35.467245 35.414674 35.361512 35.307847 35.253698 35.199154 35.144232 35.089018
35.033530 34.977850 34.921992 34.866037 34.809996 34.753946 34.697893 34.641910
34.586002 34.530234 34.474607 34.419183 34.363958 34.308989 34.254266 34.199840
34.145701 34.091891 34.038396 33.985253 33.932444 33.880001 33.827902 33.776173
33.724790 33.673772 33.623092 33.572766 33.522764 33.473094 33.423728 33.374668
33.325884 33.277373 33.229105 33.181073 33.133246 33.085613 33.038143 32.990822
32.943620 32.896518 32.849489 32.802510 32.755556
33.133333 33.206319 33.279338 33.352430 33.425623 33.498959 33.572463 33.646177
33.720122 33.794341 33.868849 33.943689 34.018869 34.094435 34.170385 34.246765
34.323566 34.400831 34.478544 34.556747 34.635414 34.714584 34.794223 34.874367
34.954972 35.036069 35.117608 35.199613 35.282024 35.364863 35.448059 35.531627
35.615489 35.699655 35.784037 35.868638 35.953364 36.038211 36.123077 36.207954
36.292731 36.377394 36.461829 36.546015 36.629832 36.713256 36.796163 36.878525
36.960215 37.041203 37.121361 37.200655 37.278958 37.356236 37.432363 37.507304
37.580937 37.653228 37.724058 37.793395 37.861127 37.927222 37.991575 38.054159
38.114873 38.173696 38.230536 38.285372 38.338121 38.388768 38.437238 38.483519
38.527544 38.569304 38.608742 38.645853 38.680585 38.712936 38.742865 38.770369
38.795414 38.818000 38.838100 38.855714 38.870822 38.883425 38.893508 38.901071
38.906108 38.908617 38.908598 38.906048 38.900973 38.893371 38.883251 38.870613
38.855471 38.837826 38.817698 38.795086 38.770019 38.742497 38.712555 38.680195
38.645460 38.608352 38.568922 38.527177 38.483175 38.436925 38.388494 38.337895
38.285203 38.230435 38.173675 38.114943 38.054331 37.991863 37.927641 37.861690
37.794119 37.724959 37.654323 37.582243 37.508842 37.434151 37.358296 37.281311
37.203324 37.124369 37.044577 36.963979 36.882706 36.800789 36.718357 36.635437
36.552155 36.468537 36.384703 36.300675 36.216568 36.132399 36.048277 35.964212
35.880309 35.796571 35.713094 35.629875 35.547004 35.464471 35.382355 35.300643
35.219406 35.138622 35.058353 34.978575 34.899338 34.820614 34.742444 34.664795
34.587701 34.511122 34.435086 34.359549 34.284529 34.209982 34.135918 34.062288
33.989097 33.916295 33.843878 33.771798 33.700042 33.628563 33.557342 33.486334
33.415514 33.344837 33.274275 33.203785 33.133333
33.511111 33.608464 33.705866 33.803359 33.900995 33.998813 34.096867 34.195189
34.293835 34.392829 34.492231 34.592054 34.692358 34.793149 34.894486 34.996364
35.098841 35.201903 35.305604 35.409918 35.514898 35.620506 35.726789 35.833700
35.941279 36.049466 36.158297 36.267700 36.377704 36.488223 36.599280 36.710779
36.822733 36.935033 37.047688 37.160575 37.273695 37.386916 37.500229 37.613494
37.726693 37.839679 37.952426 38.064778 38.176704 38.288043 38.398758 38.508682
38.617775 38.725867 38.832914 38.938746 39.043318 39.146459 39.248123 39.348145
39.446477 39.542959 39.637546 39.730083 39.820529 39.908736 39.994667 40.078183
40.159253 40.237746 40.313636 40.386806 40.457231 40.524806 40.589514 40.651259
40.710029 40.765740 40.818383 40.867887 40.914246 40.957399 40.997344 41.034029
41.067454 41.097579 41.124403 41.147895 41.168057 41.184864 41.198319 41.208407
41.215128 41.218474 41.218448 41.215048 41.208276 41.198137 41.184633 41.167779
41.147573 41.124039 41.097177 41.067019 41.033565 40.996856 40.956894 40.913729
40.867366 40.817865 40.765234 40.709543 40.650804 40.589099 40.524444 40.456933
40.386585 40.313506 40.237722 40.159349 40.078417 39.995056 39.909298 39.821285
39.731053 39.638751 39.544423 39.448224 39.350199 39.250512 39.149209 39.046460
38.942310 38.836931 38.730370 38.622799 38.514263 38.404933 38.294850 38.184184
38.072970 37.961375 37.849429 37.737291 37.624985 37.512663 37.400342 37.288166
37.176142 37.064406 36.952958 36.841921 36.731288 36.621170 36.511553 36.402537
36.294098 36.186325 36.079186 35.972758 35.867004 35.761987 35.657663 35.554084
35.451201 35.349054 35.247588 35.146833 35.046731 34.947298 34.848475 34.750268
34.652616 34.555513 34.458899 34.362759 34.267031 34.171694 34.076684 33.981974
33.887502 33.793232 33.699108 33.605085 33.511111
33.888889 34.010646 34.132460 34.254395 34.376501 34.498846 34.621474 34.744455
34.867822 34.991651 35.115963 35.240835 35.366279 35.492369 35.619106 35.746564
35.874732 36.003679 36.133381 36.263905 36.395211 36.527363 36.660307 36.794099
36.928670 37.064070 37.200215 37.337147 37.474767 37.613107 37.752054 37.891630
38.031707 38.172299 38.313261 38.454598 38.596151 38.737915 38.879719 39.021547
39.163217 39.304704 39.445814 39.586515 39.726606 39.866043 40.004622 40.142293
40.278845 40.414224 40.548218 40.680768 40.811663 40.940844 41.068099 41.193371
41.316453 41.437288 41.555678 41.671569 41.784771 41.895233 42.002778 42.107360
42.208814 42.307099 42.402065 42.493676 42.581796 42.666397 42.747356 42.824651
42.898174 42.967910 43.033763 43.095724 43.153711 43.207719 43.257679 43.303589
43.345392 43.383088 43.416634 43.446030 43.471242 43.492273 43.509098 43.521719
43.530123 43.534311 43.534278 43.530025 43.521556 43.508871 43.491985 43.470896
43.445629 43.416182 43.382589 43.344851 43.303012 43.257073 43.207091 43.153069
43.095077 43.033120 42.967282 42.897572 42.824088 42.746843 42.665950 42.581429
42.493406 42.401908 42.307075 42.208941 42.107659 42.003271 41.895943 41.785722
41.672788 41.557192 41.439125 41.318643 41.195946 41.071092 40.944290 40.815598
40.685231 40.553246 40.419861 40.285132 40.149277 40.012348 39.874560 39.735962
39.596765 39.457010 39.316901 39.176473 39.035921 38.895271 38.754708 38.614249
38.474067 38.334169 38.194715 38.055703 37.917278 37.779427 37.642282 37.505820
37.370158 37.235262 37.101234 36.968033 36.835745 36.704319 36.573827 36.444211
36.315528 36.187712 36.060807 35.934743 35.809547 35.685146 35.561554 35.438694
35.316568 35.195098 35.074272 34.954013 34.834297 34.715047 34.596230 34.477769
34.359624 34.241720 34.124007 34.006416 33.888889
34.266667 34.412867 34.559141 34.705553 34.852183 34.999087 35.146349 35.294015
35.442173 35.590858 35.740160 35.890101 36.040770 36.192177 36.344411 36.497467
36.651430 36.806279 36.962098 37.118849 37.276610 37.435325 37.595066 37.755760
37.917471 38.080108 38.243726 38.408215 38.573620 38.739813 38.906829 39.074521
39.242911 39.411835 39.581305 39.751138 39.921333 40.091692 40.262203 40.432652
40.603014 40.773063 40.942764 41.111880 41.280364 41.447970 41.614643 41.780132
41.944373 42.107112 42.268280 42.427620 42.585062 42.740351 42.893414 43.044001
43.192041 43.337291 43.479682 43.618981 43.755125 43.887891 44.017223 44.142913
44.264909 44.383021 44.497205 44.607286 44.713229 44.814876 44.912199 45.005059
45.093434 45.177203 45.256351 45.330773 45.400459 45.465322 45.525356 45.580488
45.630716 45.675982 45.716286 45.751581 45.781871 45.807121 45.827334 45.842488
45.852584 45.857612 45.857573 45.852467 45.842293 45.827064 45.806778 45.781459
45.751103 45.715746 45.675387 45.630072 45.579800 45.524634 45.464574 45.399695
45.330002 45.255586 45.176456 45.092720 45.004390 44.911593 44.814348 44.712798
44.606971 44.497027 44.383001 44.265071 44.143281 44.017825 43.888754 43.756277
43.620455 43.481509 43.339506 43.194681 43.047102 42.897017 42.744497 42.589796
42.432986 42.274326 42.113887 41.951931 41.788524 41.623926 41.458201 41.291604
41.124191 40.956212 40.787712 40.618933 40.449912 40.280878 40.111857 39.943064
39.774514 39.606409 39.438749 39.271721 39.105313 38.939694 38.774840 38.610902
38.447845 38.285801 38.124725 37.964729 37.805756 37.647904 37.491104 37.335436
37.180823 37.027326 36.874863 36.723476 36.573079 36.423696 36.275237 36.127710
35.981023 35.835169 35.690053 35.545655 35.401881 35.258697 35.116010 34.973774
34.831900 34.690332 34.548983 34.407788 34.266667
34.644444 34.815141 34.985920 35.156869 35.328060 35.499591 35.671520 35.843950
36.016927 36.190557 36.364872 36.539979 36.715897 36.892730 37.070482 37.249254
37.429033 37.609918 37.791874 37.974997 38.159232 38.344667 38.531229 38.718997
38.907874 39.097932 39.289053 39.481296 39.674522 39.868778 40.063904 40.259932
40.456682 40.654173 40.852203 41.050777 41.249674 41.448883 41.648166 41.847498
42.046625 42.245507 42.443876 42.641680 42.838639 43.034691 43.229544 43.423128
43.615146 43.805520 43.993949 44.180350 44.364425 44.546086 44.725039 44.901198
45.074273 45.244181 45.410644 45.573582 45.732731 45.888017 46.039190 46.186185
46.328771 46.466890 46.600330 46.729044 46.852838 46.971675 47.085383 47.193934
47.297174 47.395085 47.487534 47.574510 47.655898 47.731692 47.801799 47.866216
47.924866 47.977750 48.024807 48.066040 48.101403 48.130899 48.154496 48.172197
48.183983 48.189856 48.189811 48.183847 48.171972 48.154183 48.130502 48.100925
48.065486 48.024182 47.977061 47.924120 47.865421 47.800964 47.730827 47.655014
47.573620 47.486651 47.394224 47.296350 47.193164 47.084686 46.971070 46.852346
46.728688 46.600134 46.466880 46.328972 46.186629 46.039905 45.889037 45.734089
45.575316 45.412790 45.246780 45.077366 44.904831 44.729258 44.550940 44.369962
44.186627 44.001018 43.813441 43.623978 43.432936 43.240390 43.046645 42.851770
42.656061 42.459581 42.262615 42.065214 41.867654 41.669971 41.472427 41.275045
41.078070 40.881511 40.685594 40.490314 40.295879 40.102267 39.909666 39.718041
39.527557 39.338166 39.150013 38.963036 38.777357 38.592904 38.409778 38.227896
38.047337 37.868010 37.689974 37.513130 37.337516 37.163028 36.989686 36.817382
36.646116 36.475778 36.306352 36.137727 35.969871 35.802674 35.636089 35.470009
35.304374 35.139080 34.974057 34.809205 34.644444
35.022222 35.217471 35.412818 35.608352 35.804179 36.000377 36.197058 36.394286
36.592178 36.790782 36.990219 37.190519 37.391805 37.594089 37.797490 38.002003
38.207744 38.414686 38.622940 38.832458 39.043344 39.255525 39.469098 39.683967
39.900218 40.117729 40.336574 40.556609 40.777892 41.000255 41.223741 41.448158
41.673533 41.899650 42.126519 42.353900 42.581788 42.809922 43.038279 43.266576
43.494777 43.722581 43.949935 44.176523 44.402279 44.626875 44.850233 45.072014
45.292132 45.510243 45.726254 45.939819 46.150839 46.358973 46.564120 46.765944
46.964346 47.159000 47.349812 47.536469 47.718883 47.896757 48.070014 48.238374
48.401770 48.559945 48.712841 48.860225 49.002050 49.138105 49.268356 49.392615
49.510858 49.622922 49.728789 49.828322 49.921509 50.008235 50.088496 50.162193
50.229330 50.289826 50.343687 50.390851 50.431323 50.465059 50.492064 50.512309
50.525797 50.532515 50.532463 50.525643 50.512053 50.491709 50.464609 50.430781
50.390223 50.342979 50.289045 50.228484 50.161293 50.087550 50.007256 49.920510
49.827316 49.727792 49.621950 49.509929 49.391749 49.267573 49.137429 49.001503
48.859834 48.712634 48.559950 48.402018 48.238898 48.070849 47.897941 47.720454
47.538468 47.352284 47.161989 46.967901 46.770115 46.568961 46.364539 46.157189
45.947012 45.734354 45.519317 45.302248 45.083243 44.862650 44.640558 44.417308
44.192979 43.967906 43.742155 43.516046 43.289634 43.063223 42.836852 42.610810
42.385116 42.160039 41.935584 41.711998 41.489267 41.267615 41.047013 40.827660
40.609510 40.392739 40.177284 39.963297 39.750703 39.539626 39.329979 39.121864
38.915180 38.710005 38.506231 38.303913 38.102933 37.903323 37.704963 37.507862
37.311895 37.117052 36.923207 36.730330 36.538295 36.347056 36.156488 35.966529
35.777057 35.587998 35.399234 35.210679 35.022222
35.400000 35.619868 35.839841 36.060038 36.280551 36.501505 36.722981 36.945108
37.167951 37.391644 37.616233 37.841856 38.068537 38.296414 38.525491 38.755903
38.987631 39.220804 39.455382 39.691486 39.929049 40.168184 40.408799 40.650995
40.894652 41.139859 41.386469 41.634556 41.883944 42.134690 42.386593 42.639691
42.893755 43.148806 43.404587 43.661099 43.918062 44.175457 44.432978 44.690590
44.947965 45.205049 45.461494 45.717231 45.971897 46.225407 46.477385 46.727735
46.976072 47.222291 47.466002 47.707094 47.945177 48.180137 48.411590 48.639421
48.863256 49.082983 49.298240 49.508924 49.714689 49.915440 50.110854 50.300844
50.485112 50.663584 50.835985 51.002256 51.162147 51.315612 51.462431 51.602567
51.735827 51.862187 51.981480 52.093691 52.198679 52.296437 52.386846 52.469906
52.545522 52.613695 52.674351 52.727494 52.773068 52.811078 52.841485 52.864294
52.879481 52.887049 52.886992 52.879309 52.864009 52.841090 52.810577 52.772465
52.726795 52.673562 52.612826 52.544580 52.468904 52.385794 52.295348 52.197568
52.092574 51.980373 51.861109 51.734799 51.601610 51.461568 51.314870 51.161552
51.001836 50.835772 50.663610 50.485412 50.301456 50.111816 49.916795 49.716479
49.511197 49.301045 49.086370 48.867280 48.644140 48.417061 48.186425 47.952345
47.715212 47.475140 47.232525 46.987478 46.740395 46.491381 46.240828 45.988831
45.735773 45.481739 45.227098 44.971920 44.716560 44.461069 44.205785 43.950740
43.696250 43.442329 43.189267 42.937061 42.685975 42.435986 42.187332 41.939970
41.694112 41.449696 41.206905 40.965662 40.726122 40.488193 40.252001 40.017439
39.784609 39.553393 39.323862 39.095891 38.869526 38.644633 38.421235 38.199191
37.978502 37.759023 37.540734 37.323489 37.107246 36.891861 36.677275 36.463346
36.249996 36.037092 35.824539 35.612211 35.400000
35.777778 36.022333 36.267014 36.511932 36.757223 37.002984 37.249359 37.496429
37.744343 37.993162 38.243039 38.494015 38.746243 38.999742 39.254663 39.511000
39.768901 40.028333 40.289438 40.552156 40.816619 41.082740 41.350638 41.620196
41.891522 42.164467 42.439122 42.715310 42.993102 43.272290 43.552928 43.834775
44.117866 44.401929 44.686976 44.972708 45.259115 45.545870 45.832942 46.119977
46.406923 46.693404 46.979349 47.264361 47.548351 47.830907 48.111924 48.390977
48.667951 48.942413 49.214239 49.482992 49.748544 50.010462 50.268615 50.522578
50.772222 51.017137 51.257198 51.492013 51.721465 51.945184 52.163065 52.374763
52.580187 52.779018 52.971181 53.156386 53.334573 53.505483 53.669069 53.825103
53.973553 54.114222 54.247087 54.371980 54.488891 54.597677 54.698336 54.790751
54.874925 54.950766 55.018278 55.077391 55.128112 55.170388 55.204226 55.229593
55.246493 55.254911 55.254848 55.246304 55.229280 55.203792 55.169836 55.127448
55.076622 55.017412 54.949811 54.873892 54.789650 54.697181 54.596483 54.487673
54.370756 54.245876 54.113044 53.972432 53.824061 53.668133 53.504681 53.333936
53.155945 52.970970 52.779073 52.580548 52.375470 52.164162 51.946717 51.723483
51.494567 51.260344 51.020930 50.776724 50.527850 50.274725 50.017479 49.756541
49.492043 49.224425 48.953816 48.680658 48.405076 48.127509 47.848073 47.567201
47.284996 47.001879 46.717938 46.433577 46.148867 45.864192 45.579604 45.295464
45.011801 44.728952 44.446925 44.166026 43.886244 43.607856 43.330826 43.055403
42.781531 42.509427 42.239015 41.970480 41.703729 41.438917 41.175933 40.914902
40.655699 40.398418 40.142923 39.889279 39.637340 39.387143 39.138535 38.891528
38.645961 38.401823 38.158951 37.917309 37.676735 37.437171 37.198458 36.960518
36.723196 36.486397 36.249973 36.013812 35.777778
36.155556 36.424880 36.694337 36.964070 37.234198 37.504874 37.776199 38.048335
38.321361 38.595446 38.870647 39.147134 39.424941 39.704237 39.985031 40.267489
40.551590 40.837496 41.125157 41.414724 41.706119 41.999481 42.294698 42.591897
42.890933 43.191915 43.494666 43.799275 44.105531 44.413503 44.722946 45.033906
45.346103 45.659562 45.973968 46.289323 46.605279 46.921815 47.238553 47.555446
47.872091 48.188418 48.503999 48.818744 49.132203 49.444268 49.754475 50.062698
50.368463 50.671632 50.971725 51.268598 51.561769 51.851091 52.136089 52.416614
52.692205 52.962717 53.227707 53.487038 53.740288 53.987334 54.227779 54.461514
54.688173 54.907662 55.119649 55.324056 55.520584 55.709174 55.889559 56.061696
56.225355 56.380505 56.526950 56.664672 56.793503 56.913439 57.024339 57.126207
57.218930 57.302513 57.376870 57.442010 57.497865 57.544447 57.581708 57.609656
57.628266 57.637540 57.637472 57.628060 57.609316 57.581236 57.543847 57.497144
57.441175 57.375929 57.301476 57.217807 57.125013 57.023087 56.912144 56.792184
56.663347 56.525640 56.379234 56.224146 56.060577 55.888556 55.708320 55.519912
55.323601 55.119447 54.907755 54.688601 54.462324 54.229019 53.989055 53.742542
53.489883 53.231202 52.966926 52.697193 52.422451 52.142847 51.858847 51.570603
51.278593 50.982968 50.684214 50.382478 50.078246 49.771657 49.463192 49.152977
48.841484 48.528822 48.215448 47.901451 47.587269 47.272970 46.958967 46.645307
46.332373 46.020188 45.709107 45.399128 45.090574 44.783418 44.477949 44.174118
43.872180 43.572062 43.273984 42.977853 42.683856 42.391879 42.102074 41.814312
41.528711 41.245126 40.963644 40.684109 40.406575 40.130876 39.857038 39.584886
39.314420 39.045460 38.777978 38.511795 38.246858 37.982987 37.720108 37.458045
37.196703 36.935912 36.675559 36.415484 36.155556
36.533333 36.827507 37.121834 37.416452 37.711525 38.007174 38.303574 38.600824
38.899106 39.198497 39.499184 39.801217 40.104783 40.409909 40.716777 41.025384
41.335909 41.648317 41.962779 42.279227 42.597822 42.918460 43.241288 43.566169
43.893230 44.222299 44.553484 44.886574 45.221656 45.558483 45.897116 46.237271
46.578985 46.921935 47.266132 47.611218 47.957177 48.303615 48.650490 48.997377
49.344208 49.690529 50.036246 50.380880 50.724317 51.066058 51.405967 51.743531
52.078600 52.410650 52.739520 53.064684 53.385974 53.702866 54.015192 54.322438
54.624439 54.920696 55.211053 55.495034 55.772492 56.042981 56.306368 56.562238
56.810477 57.050703 57.282824 57.506493 57.721636 57.927947 58.125370 58.313637
58.492709 58.662354 58.822551 58.973102 59.113999 59.245076 59.366336 59.477643
59.579006 59.670318 59.751591 59.822742 59.883784 59.934659 59.975376 60.005898
60.026233 60.036362 60.036288 60.026012 60.005531 59.974868 59.934013 59.883008
59.821843 59.750578 59.669202 59.577800 59.476359 59.364991 59.243686 59.112584
58.971682 58.821150 58.660995 58.491420 58.312446 58.124310 57.927049 57.720937
57.506031 57.282640 57.050841 56.810983 56.563161 56.307761 56.044898 55.774993
55.498179 55.214909 54.925330 54.629924 54.328849 54.022609 53.711371 53.395656
53.075632 52.751831 52.424421 52.093937 51.760538 51.424759 51.086748 50.747028
50.405734 50.063374 49.720063 49.376288 49.032142 48.688089 48.344196 48.000897
47.658235 47.316611 46.976040 46.636891 46.299149 45.963149 45.628850 45.296547
44.966174 44.637989 44.311902 43.988133 43.666569 43.347392 43.030471 42.715949
42.403677 42.093765 41.786047 41.480599 41.177243 40.876020 40.576745 40.279428
39.983876 39.690069 39.397812 39.107057 38.817609 38.529394 38.242220 37.955988
37.670513 37.385675 37.101295 36.817238 36.533333
36.911111 37.230227 37.549503 37.869113 38.189198 38.509944 38.831474 39.153982
39.477566 39.802427 40.128638 40.456401 40.785761 41.116921 41.449894 41.784879
42.121858 42.461020 42.802315 43.145921 43.491749 43.839966 44.190445 44.543335
44.898470 45.255979 45.615656 45.977607 46.341586 46.707673 47.075581 47.445363
47.816691 48.189589 48.563690 48.938988 49.315076 49.691920 50.069075 50.446479
50.823652 51.200505 51.576527 51.951603 52.325199 52.697173 53.066974 53.434441
53.799007 54.160498 54.518338 54.872345 55.221943 55.566945 55.906782 56.241268
56.569849 56.892346 57.208227 57.517321 57.819127 58.113488 58.399937 58.678335
58.948252 59.209571 59.461901 59.705148 59.938962 60.163272 60.377769 60.582403
60.776907 60.961250 61.135204 61.298754 61.451709 61.594067 61.725671 61.846529
61.956515 62.055641 62.143810 62.221037 62.287249 62.342461 62.386622 62.419743
62.441797 62.452789 62.452710 62.441560 62.419352 62.386078 62.341771 62.286420
62.220077 62.142729 62.054451 61.955228 61.845161 61.724238 61.592587 61.450203
61.297246 61.133717 60.959811 60.775545 60.581150 60.376657 60.162339 59.938245
59.704690 59.461744 59.209765 58.948844 58.679381 58.401492 58.115613 57.821883
57.520778 57.212453 56.897417 56.575841 56.248264 55.914868 55.576211 55.232483
54.884259 54.531727 54.175470 53.815674 53.452921 53.087385 52.719644 52.349856
51.978585 51.605972 51.232558 50.858462 50.484200 50.109865 49.735944 49.362499
48.989986 48.618437 48.248270 47.879487 47.512469 47.147186 46.783980 46.422793
46.063923 45.707286 45.353139 45.001371 44.652200 44.305490 43.961419 43.619830
43.280861 42.944340 42.610363 42.278745 41.949545 41.622565 41.297832 40.975138
40.654476 40.335634 40.018573 39.703080 39.389086 39.076379 38.764865 38.454337
38.144674 37.835677 37.527206 37.219071 36.911111
37.288889 37.633037 37.977367 38.322044 38.667264 39.013172 39.359974 39.707792
40.056841 40.407215 40.759134 41.112665 41.468026 41.825252 42.184562 42.545956
42.909644 43.275592 43.644001 44.014798 44.388170 44.764005 45.142472 45.523418
45.906992 46.292998 46.681561 47.072442 47.465740 47.861169 48.258803 48.658309
49.059731 49.462692 49.867202 50.272844 50.679593 51.086991 51.494982 51.903067
52.311158 52.718723 53.125643 53.531354 53.935711 54.338125 54.738426 55.136008
55.530682 55.921828 56.309245 56.692309 57.070809 57.444127 57.812051 58.173974
58.529688 58.878606 59.220532 59.554904 59.881543 60.199921 60.509877 60.810924
61.102923 61.385430 61.658331 61.921227 62.174030 62.416386 62.648233 62.869262
63.079433 63.278483 63.466391 63.642935 63.808110 63.961734 64.103813 64.234201
64.352912 64.459830 64.554973 64.638254 64.709691 64.769222 64.816863 64.852573
64.876363 64.888214 64.888130 64.876112 64.852157 64.816287 64.768491 64.708813
64.637237 64.553828 64.458569 64.351550 64.232753 64.102298 63.960171 63.806521
63.641344 63.464826 63.276971 63.078007 62.867953 62.647079 62.415425 62.173304
61.920780 61.658212 61.385688 61.103613 60.812102 60.511605 60.202263 59.884567
59.558682 59.225140 58.884124 58.536200 58.181567 57.820819 57.454165 57.082221
56.705198 56.323725 55.938013 55.548694 55.155970 54.760471 54.362385 53.962329
53.560474 53.157417 52.753305 52.348712 51.943755 51.538978 51.134469 50.730736
50.327834 49.926235 49.525959 49.127436 48.730654 48.335999 47.943428 47.553282
47.165485 46.780335 46.397727 46.017914 45.640763 45.266483 44.894918 44.526233
44.160251 43.797096 43.436571 43.078761 42.723456 42.370699 42.020270 41.672178
41.326193 40.982290 40.640235 40.299971 39.961264 39.624025 39.288026 38.953150
38.619174 38.285956 37.953284 37.620995 37.288889
37.666667 38.035948 38.405419 38.775283 39.145710 39.516917 39.889051 40.262339
40.636901 41.012971 41.390639 41.770143 42.151540 42.535065 42.920743 43.308803
43.699232 44.092252 44.487808 44.886110 45.287063 45.690858 46.097357 46.506733
46.918800 47.333707 47.751222 48.171468 48.594165 49.019405 49.446860 49.876590
50.308219 50.741772 51.176825 51.613368 52.050931 52.489468 52.928465 53.367840
53.807039 54.245945 54.683968 55.120960 55.556298 55.989807 56.420840 56.849197
57.274216 57.695676 58.112907 58.525677 58.933314 59.335582 59.731818 60.121788
60.504845 60.880765 61.248927 61.609121 61.960762 62.303660 62.637268 62.961421
63.275620 63.579726 63.873288 64.156196 64.428050 64.688769 64.938003 65.175698
65.401553 65.615537 65.817397 66.007123 66.184504 66.349546 66.502078 66.642115
66.769524 66.884325 66.986415 67.075817 67.152456 67.216353 67.267455 67.305780
67.331298 67.344017 67.343928 67.331033 67.305343 67.266848 67.215583 67.151531
67.074746 66.985209 66.882998 66.768091 66.640593 66.500486 66.347906 66.182839
66.005459 65.815761 65.613961 65.400069 65.174344 64.936816 64.687791 64.427325
64.155772 63.873215 63.580060 63.276417 62.962744 62.639180 62.306231 61.964065
61.613234 61.253928 60.886742 60.511887 60.129990 59.741278 59.346405 58.945607
58.539556 58.128489 57.713087 57.293582 56.870656 56.444528 56.015871 55.584887
55.152232 54.718083 54.283072 53.847347 53.411511 52.975678 52.540415 52.105803
51.672368 51.240154 50.809643 50.380844 49.954192 49.529660 49.107636 48.688056
48.271261 47.857155 47.446030 47.037758 46.632583 46.230351 45.831259 45.435126
45.042105 44.651994 44.264900 43.880606 43.499174 43.120375 42.744231 42.370502
41.999172 41.629995 41.262919 40.897695 40.534239 40.172303 39.811773 39.452406
39.094058 38.736497 38.379553 38.023006 37.666667
38.044444 38.438956 38.833681 39.228813 39.624580 40.021154 40.418775 40.817587
41.217841 41.619652 42.023273 42.428788 42.836450 43.246306 43.658609 44.073366
44.490822 44.910943 45.333963 45.759805 46.188685 46.620482 47.055393 47.493248
47.934220 48.378091 48.825004 49.274692 49.727268 50.182412 50.640203 51.100268
51.562652 52.026929 52.493104 52.960703 53.429690 53.899542 54.370185 54.841047
55.312017 55.782481 56.252291 56.720797 57.187816 57.652668 58.115141 58.574531
59.030605 59.482642 59.930391 60.373129 60.810595 61.242068 61.667286 62.085544
62.496586 62.899730 63.294734 63.680950 64.058156 64.425745 64.783520 65.130922
65.467785 65.793601 66.108236 66.411238 66.702504 66.981637 67.248568 67.502954
67.744752 67.973675 68.189704 68.392598 68.582360 68.758795 68.921918 69.071573