# vtk DataFile Version 3.0
Steady-state temperature (Jacobi)
ASCII
DATASET STRUCTURED_POINTS
DIMENSIONS 181 181 1
ORIGIN 0.0 0.0 0.0
SPACING 0.05 0.05 1.0
POINT_DATA 32761
SCALARS Temperature float 1
LOOKUP_TABLE default
32.000000 32.000000 32.000000 32.000000 32.000000 32.000000 32.000000 32.000000
32.000000 32.000000 32.000000 32.000000 32.000000 32.000000 32.000000 32.000000
32.000000 32.000000 32.000000 32.000000 32.000000 32.000000 32.000000 32.000000
32.000000 32.000000 32.000000 32.000000 32.000000 32.000000 32.000000 32.000000
32.000000 32.000000 32.000000 32.000000 32.000000 32.000000 32.000000 32.000000
32.000000 32.000000 32.000000 32.000000 32.000000 32.000000 32.000000 32.000000
32.000000 32.000000 32.000000 32.000000 32.000000 32.000000 32.000000 32.000000
32.000000 32.000000 32.000000 32.000000 32.000000 32.000000 32.000000 32.000000
32.000000 32.000000 32.000000 32.000000 32.000000 32.000000 32.000000 32.000000
32.000000 32.000000 32.000000 32.000000 32.000000 32.000000 32.000000 32.000000
32.000000 32.000000 32.000000 32.000000 32.000000 32.000000 32.000000 32.000000
32.000000 32.000000 32.000000 32.000000 32.000000 32.000000 32.000000 32.000000
32.000000 32.000000 32.000000 32.000000 32.000000 32.000000 32.000000 32.000000
32.000000 32.000000 32.000000 32.000000 32.000000 32.000000 32.000000 32.000000
32.000000 32.000000 32.000000 32.000000 32.000000 32.000000 32.000000 32.000000
32.000000 32.000000 32.000000 32.000000 32.000000 32.000000 32.000000 32.000000
32.000000 32.000000 32.000000 32.000000 32.000000 32.000000 32.000000 32.000000
32.000000 32.000000 32.000000 32.000000 32.000000 32.000000 32.000000 32.000000
32.000000 32.000000 32.000000 32.000000 32.000000 32.000000 32.000000 32.000000
32.000000 32.000000 32.000000 32.000000 32.000000 32.000000 32.000000 32.000000
32.000000 32.000000 32.000000 32.000000 32.000000 32.000000 32.000000 32.000000
32.000000 32.000000 32.000000 32.000000 32.000000 32.000000 32.000000 32.000000
32.000000 32.000000 32.000000 32.000000 32.000000
32.377778 32.359624 32.341536 32.323580 32.305818 32.288312 32.271123 32.254304
32.237908 32.221983 32.206571 32.191710 32.177433 32.163768 32.150735 32.138352
32.126630 32.115574 32.105186 32.095462 32.086393 32.077971 32.070175 32.062992
32.056397 32.050370 32.044881 32.039910 32.035423 32.031398 32.027801 32.024610
32.021789 32.019321 32.017168 32.015317 32.013730 32.012399 32.011287 32.010388
32.009668 32.009125 32.008725 32.008472 32.008331 32.008311 32.008376 32.008541
32.008768 32.009077 32.009430 32.009848 32.010294 32.010792 32.011304 32.011856
32.012411 32.012996 32.013573 32.014172 32.014755 32.015351 32.015925 32.016505
32.017057 32.017610 32.018130 32.018647 32.019129 32.019603 32.020040 32.020467
32.020858 32.021235 32.021576 32.021903 32.022196 32.022473 32.022718 32.022946
32.023146 32.023328 32.023484 32.023623 32.023737 32.023834 32.023909 32.023967
32.024004 32.024023 32.024023 32.024004 32.023967 32.023909 32.023834 32.023737
32.023623 32.023484 32.023328 32.023145 32.022946 32.022717 32.022472 32.022195
32.021902 32.021575 32.021234 32.020856 32.020465 32.020038 32.019600 32.019125
32.018642 32.018124 32.017602 32.017047 32.016493 32.015910 32.015332 32.014731
32.014143 32.013537 32.012951 32.012356 32.011789 32.011221 32.010692 32.010172
32.009701 32.009253 32.008865 32.008515 32.008240 32.008019 32.007888 32.007833
32.007888 32.008043 32.008330 32.008745 32.009321 32.010057 32.010987 32.012115
32.013475 32.015076 32.016954 32.019121 32.021613 32.024446 32.027658 32.031267
32.035309 32.039806 32.044792 32.050288 32.056327 32.062930 32.070122 32.077923
32.086354 32.095427 32.105156 32.115548 32.126608 32.138334 32.150720 32.163755
32.177422 32.191701 32.206563 32.221976 32.237903 32.254300 32.271119 32.288310
32.305816 32.323578 32.341535 32.359624 32.377778
32.755556 32.719248 32.683073 32.647160 32.611636 32.576626 32.542246 32.508609
32.475817 32.443967 32.413144 32.383422 32.354870 32.327539 32.301475 32.276709
32.253266 32.231155 32.210380 32.190933 32.172800 32.155954 32.140369 32.126002
32.112819 32.100764 32.089796 32.079852 32.070890 32.062839 32.055658 32.049275
32.043651 32.038713 32.034429 32.030725 32.027578 32.024913 32.022718 32.020919
32.019512 32.018425 32.017663 32.017155 32.016915 32.016872 32.017051 32.017377
32.017884 32.018498 32.019259 32.020091 32.021041 32.022033 32.023117 32.024217
32.025389 32.026553 32.027770 32.028962 32.030189 32.031375 32.032581 32.033735
32.034896 32.035995 32.037090 32.038116 32.039130 32.040071 32.040992 32.041838
32.042660 32.043408 32.044127 32.044774 32.045390 32.045939 32.046455 32.046908
32.047327 32.047688 32.048016 32.048291 32.048531 32.048724 32.048882 32.048995
32.049074 32.049111 32.049111 32.049074 32.048995 32.048882 32.048724 32.048531
32.048291 32.048016 32.047688 32.047327 32.046907 32.046454 32.045938 32.045390
32.044773 32.044125 32.043406 32.042657 32.041835 32.040987 32.040065 32.039123
32.038107 32.037078 32.035980 32.034877 32.033712 32.032552 32.031338 32.030142
32.028904 32.027698 32.026464 32.025279 32.024083 32.022953 32.021833 32.020799
32.019798 32.018906 32.018075 32.017379 32.016775 32.016336 32.016028 32.015921
32.015987 32.016298 32.016835 32.017666 32.018784 32.020258 32.022089 32.024346
32.027042 32.030246 32.033980 32.038315 32.043281 32.048949 32.055358 32.062577
32.070650 32.079645 32.089607 32.100601 32.112672 32.125877 32.140257 32.155859
32.172716 32.190863 32.210318 32.231103 32.253221 32.276672 32.301442 32.327512
32.354847 32.383404 32.413128 32.443954 32.475807 32.508600 32.542239 32.576620
32.611632 32.647157 32.683071 32.719247 32.755556
33.133333 33.078873 33.024610 32.970740 32.917455 32.864940 32.813371 32.762916
32.713729 32.665955 32.619720 32.575140 32.532311 32.491317 32.452222 32.415077
32.379913 32.346751 32.315591 32.286426 32.259228 32.233968 32.210592 32.189055
32.169281 32.151215 32.134766 32.119872 32.106431 32.094381 32.083615 32.074071
32.065642 32.058273 32.051854 32.046345 32.041633 32.037691 32.034409 32.031775
32.029677 32.028119 32.026991 32.026311 32.025968 32.025995 32.026280 32.026869
32.027649 32.028677 32.029839 32.031201 32.032647 32.034253 32.035900 32.037672
32.039449 32.041320 32.043164 32.045074 32.046933 32.048832 32.050658 32.052504
32.054261 32.056018 32.057673 32.059314 32.060845 32.062350 32.063740 32.065094
32.066333 32.067529 32.068613 32.069649 32.070577 32.071455 32.072231 32.072956
32.073586 32.074165 32.074657 32.075097 32.075458 32.075767 32.076004 32.076186
32.076303 32.076364 32.076364 32.076303 32.076186 32.076003 32.075767 32.075458
32.075097 32.074657 32.074165 32.073586 32.072955 32.072230 32.071454 32.070575
32.069647 32.068610 32.067526 32.066329 32.065089 32.063733 32.062341 32.060835
32.059301 32.057656 32.055996 32.054232 32.052469 32.050614 32.048776 32.046863
32.044987 32.043056 32.041186 32.039285 32.037471 32.035654 32.033953 32.032283
32.030762 32.029310 32.028043 32.026891 32.025966 32.025208 32.024728 32.024476
32.024560 32.024943 32.025734 32.026908 32.028572 32.030719 32.033454 32.036786
32.040820 32.045580 32.051173 32.057637 32.065080 32.073551 32.083159 32.093962
32.106067 32.119539 32.134480 32.150955 32.169060 32.188855 32.210423 32.233817
32.259101 32.286314 32.315497 32.346668 32.379844 32.415017 32.452173 32.491275
32.532277 32.575110 32.619696 32.665934 32.713713 32.762902 32.813360 32.864932
32.917449 32.970736 33.024607 33.078871 33.133333
33.511111 33.438498 33.366148 33.294322 33.223276 33.153256 33.084498 33.017225
32.951645 32.887946 32.826303 32.766864 32.709762 32.655105 32.602983 32.553459
32.506580 32.462367 32.420830 32.381948 32.345697 32.312022 32.280872 32.252161
32.225821 32.201740 32.179839 32.159990 32.142109 32.126055 32.111748 32.099041
32.087860 32.078057 32.069570 32.062250 32.056052 32.050828 32.046552 32.043075
32.040393 32.038357 32.036984 32.036124 32.035813 32.035901 32.036443 32.037285
32.038500 32.039931 32.041667 32.043546 32.045671 32.047877 32.050276 32.052705
32.055281 32.057839 32.060505 32.063115 32.065796 32.068389 32.071020 32.073538
32.076067 32.078461 32.080844 32.083079 32.085282 32.087329 32.089329 32.091169
32.092953 32.094577 32.096137 32.097542 32.098878 32.100068 32.101186 32.102167
32.103075 32.103858 32.104567 32.105162 32.105683 32.106099 32.106440 32.106687
32.106856 32.106937 32.106937 32.106856 32.106687 32.106440 32.106099 32.105682
32.105162 32.104567 32.103858 32.103075 32.102166 32.101185 32.100066 32.098876
32.097540 32.096134 32.094573 32.092948 32.091163 32.089321 32.087317 32.085268
32.083060 32.080821 32.078432 32.076029 32.073490 32.070961 32.068314 32.065703
32.062999 32.060361 32.057661 32.055061 32.052436 32.049948 32.047477 32.045186
32.042961 32.040962 32.039085 32.037489 32.036081 32.035014 32.034212 32.033824
32.033789 32.034254 32.035176 32.036701 32.038804 32.041631 32.045178 32.049589
32.054883 32.061204 32.068590 32.077188 32.087052 32.098330 32.111092 32.125483
32.141584 32.159537 32.179427 32.201386 32.225501 32.251889 32.280628 32.311816
32.345514 32.381794 32.420695 32.462255 32.506482 32.553377 32.602913 32.655048
32.709713 32.766823 32.826268 32.887919 32.951622 33.017207 33.084483 33.153245
33.223267 33.294316 33.366144 33.438496 33.511111
33.888889 33.798123 33.707686 33.617905 33.529098 33.441575 33.355629 33.271540
33.189565 33.109945 33.032893 32.958599 32.887224 32.818910 32.753760 32.691864
32.633270 32.578017 32.526102 32.477517 32.432212 32.390142 32.351216 32.315359
32.282448 32.252388 32.225031 32.200272 32.177944 32.157944 32.140090 32.124288
32.110350 32.098196 32.087634 32.078603 32.070913 32.064523 32.059245 32.055063
32.051788 32.049432 32.047803 32.046940 32.046650 32.046996 32.047781 32.049092
32.050727 32.052794 32.055086 32.057730 32.060513 32.063577 32.066708 32.070057
32.073408 32.076922 32.080385 32.083960 32.087437 32.090983 32.094392 32.097832
32.101105 32.104374 32.107455 32.110505 32.113351 32.116143 32.118725 32.121236
32.123534 32.125750 32.127758 32.129676 32.131395 32.133018 32.134455 32.135794
32.136960 32.138029 32.138939 32.139750 32.140418 32.140987 32.141424 32.141761
32.141977 32.142088 32.142088 32.141977 32.141760 32.141424 32.140987 32.140418
32.139750 32.138938 32.138028 32.136960 32.135793 32.134454 32.133017 32.131393
32.129673 32.127755 32.125745 32.123528 32.121227 32.118714 32.116129 32.113333
32.110482 32.107426 32.104337 32.101058 32.097773 32.094318 32.090889 32.087320
32.083815 32.080205 32.076700 32.073134 32.069721 32.066298 32.063078 32.059907
32.056997 32.054205 32.051736 32.049463 32.047587 32.045995 32.044885 32.044163
32.044022 32.044390 32.045456 32.047172 32.049725 32.053094 32.057461 32.062834
32.069395 32.077177 32.086363 32.097010 32.109303 32.123318 32.139240 32.157162
32.177265 32.199652 32.224496 32.251904 32.282034 32.314987 32.350900 32.389860
32.431975 32.477307 32.525927 32.577863 32.633143 32.691753 32.753669 32.818831
32.887160 32.958544 33.032848 33.109908 33.189535 33.271515 33.355609 33.441559
33.529087 33.617897 33.707681 33.798120 33.888889
34.266667 34.157749 34.049226 33.941490 33.834924 33.729897 33.626764 33.525859
33.427494 33.331952 33.239494 33.150345 33.064704 32.982731 32.904563 32.830293
32.759997 32.693702 32.631426 32.573136 32.518800 32.468332 32.421660 32.378654
32.339212 32.303169 32.270406 32.240733 32.214024 32.190069 32.168751 32.149846
32.133251 32.118737 32.106220 32.095469 32.086428 32.078863 32.072748 32.067850
32.064174 32.061484 32.059818 32.058938 32.058914 32.059501 32.060799 32.062560
32.064908 32.067589 32.070752 32.074135 32.077907 32.081802 32.086005 32.090245
32.094719 32.099158 32.103764 32.108271 32.112888 32.117351 32.121872 32.126196
32.130531 32.134637 32.138715 32.142541 32.146307 32.149806 32.153221 32.156364
32.159405 32.162175 32.164832 32.167227 32.169500 32.171526 32.173426 32.175095
32.176638 32.177968 32.179172 32.180182 32.181065 32.181772 32.182351 32.182769
32.183055 32.183193 32.183193 32.183055 32.182769 32.182351 32.181772 32.181065
32.180181 32.179171 32.177968 32.176637 32.175094 32.173425 32.171524 32.169498
32.167224 32.164828 32.162170 32.159397 32.156354 32.153208 32.149789 32.146286
32.142513 32.138680 32.134592 32.130475 32.126124 32.121782 32.117239 32.112748
32.108097 32.103548 32.098891 32.094391 32.089842 32.085512 32.081203 32.077180
32.073256 32.069694 32.066320 32.063391 32.060753 32.058656 32.056967 32.055929
32.055436 32.055723 32.056713 32.058636 32.061445 32.065367 32.070388 32.076733
32.084419 32.093671 32.104537 32.117243 32.131864 32.148624 32.167625 32.189085
32.213124 32.239953 32.269698 32.302560 32.338663 32.378186 32.421242 32.467978
32.518486 32.572872 32.631194 32.693509 32.759828 32.830154 32.904442 32.982631
33.064618 33.150276 33.239435 33.331905 33.427454 33.525827 33.626738 33.729877
33.834908 33.941479 34.049219 34.157745 34.266667
34.644444 34.517375 34.390767 34.265077 34.140752 34.018223 33.897904 33.780186
33.665429 33.553971 33.446107 33.342109 33.242200 33.146579 33.055391 32.968762
32.886761 32.809443 32.736803 32.668833 32.605463 32.546631 32.492209 32.442097
32.396120 32.354150 32.315977 32.281461 32.250363 32.222547 32.197755 32.175861
32.156598 32.139862 32.125378 32.113073 32.102667 32.094123 32.087157 32.081770
32.077676 32.074912 32.073191 32.072587 32.072807 32.073961 32.075750 32.078316
32.081352 32.085030 32.089034 32.093564 32.098293 32.103442 32.108682 32.114248
32.119807 32.125608 32.131318 32.137193 32.142905 32.148713 32.154297 32.159918
32.165267 32.170599 32.175625 32.180590 32.185226 32.189766 32.193965 32.198042
32.201776 32.205370 32.208628 32.211734 32.214519 32.217146 32.219471 32.221636
32.223522 32.225247 32.226717 32.228027 32.229104 32.230021 32.230727 32.231269
32.231618 32.231797 32.231797 32.231618 32.231269 32.230727 32.230021 32.229104
32.228026 32.226716 32.225246 32.223521 32.221635 32.219469 32.217144 32.214516
32.211730 32.208623 32.205363 32.201767 32.198031 32.193950 32.189747 32.185201
32.180559 32.175584 32.170547 32.165201 32.159835 32.154193 32.148582 32.142741
32.136990 32.131066 32.125297 32.119424 32.113778 32.108107 32.102743 32.097444
32.092538 32.087800 32.083550 32.079582 32.076209 32.073249 32.071005 32.069325
32.068501 32.068413 32.069346 32.071214 32.074297 32.078546 32.084236 32.091357
32.100181 32.110738 32.123296 32.137921 32.154881 32.174273 32.196362 32.221269
32.249251 32.280447 32.315102 32.353359 32.395442 32.441489 32.491692 32.546171
32.605075 32.668490 32.736516 32.809191 32.886553 32.968580 33.055242 33.146449
33.242095 33.342019 33.446035 33.553909 33.665380 33.780145 33.897872 34.018198
34.140733 34.265063 34.390758 34.517371 34.644444
35.022222 34.877002 34.732310 34.588667 34.446584 34.306555 34.169052 34.034520
33.903377 33.776001 33.652739 33.533891 33.419724 33.310452 33.206259 33.107269
33.013583 32.925238 32.842262 32.764608 32.692239 32.625039 32.562915 32.505692
32.453241 32.405338 32.361834 32.322467 32.287082 32.255393 32.227254 32.202359
32.180583 32.161611 32.145348 32.131472 32.119926 32.110383 32.102829 32.096931
32.092721 32.089861 32.088428 32.088075 32.088923 32.090616 32.093317 32.096658
32.100839 32.105481 32.110815 32.116452 32.122652 32.129014 32.135822 32.142668
32.149852 32.156967 32.164321 32.171511 32.178851 32.185947 32.193114 32.199970
32.206829 32.213325 32.219764 32.225806 32.231743 32.237260 32.242636 32.247584
32.252363 32.256719 32.260888 32.264649 32.268212 32.271389 32.274363 32.276978
32.279390 32.281472 32.283352 32.284931 32.286310 32.287414 32.288317 32.288970
32.289416 32.289632 32.289632 32.289416 32.288970 32.288317 32.287414 32.286309
32.284931 32.283352 32.281471 32.279389 32.276977 32.274361 32.271386 32.268209
32.264644 32.260882 32.256711 32.252353 32.247571 32.242618 32.237238 32.231714
32.225770 32.219718 32.213266 32.206754 32.199875 32.192995 32.185797 32.178665
32.171278 32.164033 32.156611 32.149414 32.142131 32.135165 32.128215 32.121682
32.115281 32.109404 32.103788 32.098816 32.094250 32.090459 32.087238 32.084944
32.083405 32.082968 32.083500 32.085337 32.088391 32.092988 32.099084 32.107000
32.116739 32.128616 32.142678 32.159238 32.178382 32.200418 32.225467 32.253831
32.285655 32.321228 32.360711 32.404372 32.452371 32.504949 32.562252 32.624477
32.691742 32.764190 32.841894 32.924932 33.013315 33.107047 33.206067 33.310295
33.419589 33.533781 33.652646 33.775926 33.903314 34.034470 34.169011 34.306524
34.446560 34.588650 34.732299 34.876997 35.022222
35.400000 35.236631 35.073855 34.912261 34.752421 34.594893 34.440207 34.288866
34.141336 33.998049 33.859388 33.725700 33.597274 33.474366 33.357165 33.245833
33.140460 33.041117 32.947800 32.860501 32.779128 32.703609 32.633777 32.569509
32.510577 32.456827 32.407981 32.363874 32.324191 32.288768 32.257266 32.229541
32.205236 32.184237 32.166176 32.150980 32.138271 32.128025 32.119858 32.113793
32.109441 32.106878 32.105701 32.106042 32.107485 32.110209 32.113786 32.118439
32.123724 32.129907 32.136526 32.143883 32.151504 32.159716 32.168037 32.176818
32.185568 32.194655 32.203590 32.212750 32.221651 32.230675 32.239352 32.248062
32.256353 32.264599 32.272373 32.280037 32.287195 32.294191 32.300664 32.306936
32.312683 32.318203 32.323210 32.327974 32.332248 32.336272 32.339835 32.343147
32.346033 32.348669 32.350917 32.352916 32.354563 32.355961 32.357039 32.357865
32.358398 32.358671 32.358671 32.358398 32.357865 32.357038 32.355961 32.354562
32.352916 32.350916 32.348668 32.346032 32.343145 32.339833 32.336269 32.332244
32.327969 32.323203 32.318194 32.312671 32.306921 32.300644 32.294166 32.287163
32.279996 32.272321 32.264532 32.256269 32.247955 32.239218 32.230507 32.221441
32.212488 32.203266 32.194255 32.185075 32.176213 32.167299 32.158817 32.150413
32.142565 32.134940 32.128003 32.121449 32.115729 32.110571 32.106409 32.103009
32.100789 32.099559 32.099721 32.101134 32.104186 32.108786 32.115314 32.123730
32.134405 32.147353 32.162938 32.181223 32.202567 32.227076 32.255101 32.286783
32.322461 32.362301 32.406621 32.455599 32.509524 32.568566 32.632974 32.702895
32.778526 32.859969 32.947354 33.040727 33.140136 33.245552 33.356933 33.474166
33.597111 33.725560 33.859275 33.997954 34.141260 34.288803 34.440157 34.594853
34.752392 34.912239 35.073842 35.236624 35.400000
35.777778 35.596261 35.415403 35.235858 35.058264 34.883238 34.711373 34.543223
34.379313 34.220114 34.066063 33.917534 33.774864 33.638318 33.508130 33.384453
33.267420 33.157075 33.053456 32.956506 32.866183 32.782339 32.704868 32.633546
32.568225 32.508616 32.454548 32.405686 32.361853 32.322680 32.288003 32.257429
32.230823 32.207774 32.188191 32.171649 32.158107 32.147130 32.138734 32.132471
32.128420 32.126118 32.125704 32.126699 32.129301 32.133013 32.138086 32.144003
32.151066 32.158737 32.167360 32.176379 32.186174 32.196173 32.206787 32.217432
32.228540 32.239525 32.250834 32.261882 32.273125 32.283992 32.294937 32.305408
32.315856 32.325756 32.335546 32.344735 32.353743 32.362120 32.370263 32.377762
32.384990 32.391581 32.397876 32.403557 32.408929 32.413721 32.418199 32.422138
32.425765 32.428897 32.431720 32.434093 32.436161 32.437820 32.439173 32.440153
32.440822 32.441146 32.441146 32.440822 32.440153 32.439173 32.437819 32.436161
32.434093 32.431720 32.428896 32.425764 32.422136 32.418197 32.413718 32.408925
32.403552 32.397869 32.391571 32.384977 32.377746 32.370241 32.362092 32.353708
32.344689 32.335488 32.325682 32.315762 32.305290 32.294788 32.283805 32.272892
32.261591 32.250473 32.239080 32.227992 32.216760 32.205966 32.195174 32.184962
32.174914 32.165597 32.156622 32.148538 32.140993 32.134514 32.128790 32.124327
32.120862 32.118878 32.118166 32.119190 32.121796 32.126432 32.133005 32.141950
32.153233 32.167277 32.184109 32.204142 32.227457 32.254458 32.285272 32.320289
32.359671 32.403791 32.452832 32.507138 32.566896 32.632411 32.703855 32.781480
32.865423 32.955867 33.052894 33.156606 33.267011 33.384115 33.507837 33.638077
33.774657 33.917366 34.065921 34.220000 34.379217 34.543147 34.711310 34.883190
35.058227 35.235832 35.415386 35.596252 35.777778
36.155556 35.955892 35.756954 35.559460 35.364113 35.171593 34.982548 34.797597
34.617305 34.442205 34.272763 34.109407 33.952490 33.802327 33.659148 33.523156
33.394460 33.273153 33.159226 33.052680 32.953398 32.861302 32.776182 32.697903
32.626179 32.560837 32.501530 32.448073 32.400072 32.357348 32.319474 32.286298
32.257366 32.232569 32.211435 32.193908 32.179499 32.168216 32.159555 32.153590
32.149798 32.148325 32.148627 32.150917 32.154627 32.160036 32.166550 32.174507
32.183286 32.193278 32.203837 32.215399 32.227295 32.239998 32.252824 32.266274
32.279652 32.293483 32.307070 32.320949 32.334433 32.348061 32.361165 32.374284
32.386775 32.399167 32.410855 32.422349 32.433090 32.443563 32.453257 32.462630
32.471223 32.479457 32.486931 32.494026 32.500395 32.506378 32.511680 32.516597
32.520886 32.524794 32.528130 32.531091 32.533531 32.535600 32.537196 32.538419
32.539207 32.539611 32.539611 32.539207 32.538419 32.537196 32.535600 32.533531
32.531090 32.528129 32.524793 32.520884 32.516595 32.511678 32.506374 32.500391
32.494020 32.486923 32.479447 32.471209 32.462612 32.453234 32.443532 32.433051
32.422299 32.410791 32.399085 32.386672 32.374153 32.361001 32.347855 32.334176
32.320630 32.306674 32.292994 32.279050 32.265535 32.251921 32.238899 32.225962
32.213788 32.201898 32.190952 32.180505 32.171195 32.162621 32.155391 32.149156
32.144496 32.141119 32.139578 32.139645 32.141847 32.146023 32.152680 32.161726
32.173650 32.188428 32.206537 32.228017 32.253329 32.282575 32.316200 32.354351
32.397457 32.445698 32.499475 32.558984 32.624588 32.696479 32.774970 32.860225
32.952488 33.051878 33.158554 33.272564 33.393970 33.522732 33.658798 33.802025
33.952243 34.109197 34.272593 34.442061 34.617191 34.797501 34.982474 35.171533
35.364069 35.559428 35.756933 35.955882 36.155556
36.533333 36.315525 36.098509 35.883068 35.669971 35.459957 35.253740 35.051985
34.855323 34.664319 34.479501 34.301316 34.130173 33.966388 33.810249 33.661937
33.521617 33.389341 33.265163 33.149012 33.040847 32.940487 32.847819 32.762569
32.684573 32.613480 32.549103 32.491029 32.439072 32.392773 32.351967 32.316159
32.285226 32.258648 32.236355 32.217805 32.202996 32.191366 32.182986 32.177271
32.174371 32.173674 32.175409 32.178934 32.184555 32.191596 32.200434 32.210359
32.221811 32.234047 32.247561 32.261581 32.276647 32.291961 32.308103 32.324256
32.341027 32.357594 32.374582 32.391172 32.408001 32.424264 32.440598 32.456229
32.471785 32.486529 32.501074 32.514731 32.528088 32.540514 32.552565 32.563669
32.574345 32.584087 32.593370 32.601752 32.609660 32.616717 32.623299 32.629091
32.634413 32.639012 32.643150 32.646630 32.649658 32.652088 32.654067 32.655502
32.656480 32.656954 32.656954 32.656480 32.655502 32.654067 32.652087 32.649657
32.646630 32.643149 32.639011 32.634412 32.629089 32.623296 32.616713 32.609655
32.601745 32.593361 32.584076 32.574330 32.563649 32.552539 32.540481 32.528046
32.514676 32.501004 32.486440 32.471672 32.456087 32.440419 32.424039 32.407720
32.390823 32.374150 32.357060 32.340370 32.323450 32.307118 32.290762 32.275193
32.259823 32.245445 32.231508 32.218777 32.206747 32.196148 32.186529 32.178586
32.171930 32.167218 32.164131 32.163294 32.164460 32.168224 32.174417 32.183607
32.195705 32.211257 32.230249 32.253209 32.280194 32.311713 32.347884 32.389195
32.435812 32.488195 32.546539 32.611269 32.682588 32.760871 32.846307 32.939203
33.039712 33.148056 33.264324 33.388641 33.521007 33.661431 33.809811 33.966029
34.129865 34.301066 34.479288 34.664148 34.855179 35.051872 35.253647 35.459886
35.669916 35.883029 36.098483 36.315513 36.533333
36.911111 36.675160 36.440067 36.206683 35.975837 35.748336 35.524945 35.306397
35.093362 34.886470 34.686272 34.493279 34.307906 34.130530 33.961424 33.800833
33.648883 33.505696 33.371257 33.245577 33.128517 33.019997 32.919765 32.827679
32.743392 32.666723 32.597252 32.534786 32.478845 32.429252 32.385479 32.347389
32.314416 32.286479 32.262983 32.243917 32.228660 32.217280 32.209127 32.204358
32.202288 32.203163 32.206264 32.211923 32.219380 32.229050 32.240130 32.253110
32.267145 32.282792 32.299164 32.316877 32.335007 32.354217 32.373558 32.393730
32.413767 32.434395 32.454647 32.475263 32.495289 32.515470 32.534878 32.554255
32.572710 32.590972 32.608203 32.625107 32.640909 32.656280 32.670515 32.684245
32.696838 32.708878 32.719810 32.730165 32.739465 32.748181 32.755910 32.763060
32.769302 32.774978 32.779825 32.784120 32.787662 32.790660 32.792975 32.794745
32.795887 32.796472 32.796472 32.795887 32.794744 32.792975 32.790660 32.787662
32.784119 32.779824 32.774977 32.769300 32.763058 32.755906 32.748177 32.739459
32.730158 32.719801 32.708865 32.696821 32.684223 32.670487 32.656245 32.640863
32.625048 32.608127 32.590876 32.572588 32.554101 32.534684 32.515227 32.494985
32.474885 32.454178 32.433816 32.413055 32.392857 32.372491 32.352918 32.333431
32.314973 32.296872 32.280043 32.263859 32.249196 32.235486 32.223560 32.212914
32.204335 32.197391 32.192826 32.190288 32.190480 32.193135 32.198919 32.207655
32.219976 32.235794 32.255713 32.279730 32.308426 32.341871 32.380622 32.424812
32.474967 32.531268 32.594204 32.663979 32.741033 32.825571 32.917968 33.018403
33.127169 33.244391 33.370261 33.504826 33.648159 33.800205 33.960906 34.130084
34.307541 34.492968 34.686020 34.886257 35.093192 35.306256 35.524836 35.748248
35.975772 36.206635 36.440037 36.675145 36.911111
37.288889 37.034797 36.781632 36.530305 36.281716 36.036727 35.796172 35.560829
35.331436 35.108652 34.893096 34.685290 34.485716 34.294744 34.112712 33.939835
33.776312 33.622202 33.477581 33.342360 33.216509 33.099812 32.992156 32.893212
32.802816 32.720545 32.646214 32.579324 32.519695 32.466770 32.420400 32.379981
32.345421 32.316074 32.291922 32.272284 32.257227 32.246035 32.238869 32.234974
32.234612 32.236982 32.242445 32.250152 32.260558 32.272763 32.287311 32.303245
32.321189 32.340136 32.360780 32.382063 32.404738 32.427712 32.451782 32.475827
32.500682 32.525214 32.550281 32.574753 32.599501 32.623419 32.647376 32.670305
32.693066 32.714645 32.735880 32.755826 32.775287 32.793397 32.810919 32.827070
32.842563 32.856705 32.870148 32.882292 32.893723 32.903929 32.913426 32.921787
32.929454 32.936082 32.942034 32.947043 32.951392 32.954886 32.957727 32.959788
32.961191 32.961872 32.961872 32.961191 32.959788 32.957727 32.954886 32.951392
32.947042 32.942033 32.936080 32.929452 32.921784 32.913422 32.903925 32.893717
32.882284 32.870138 32.856691 32.842545 32.827047 32.810889 32.793359 32.775237
32.755762 32.735799 32.714542 32.692935 32.670139 32.647167 32.623157 32.599174
32.574346 32.549776 32.524591 32.499915 32.474886 32.450633 32.426313 32.403042
32.380013 32.358311 32.337175 32.317650 32.299030 32.282310 32.266851 32.253595
32.241980 32.232889 32.225849 32.221689 32.220029 32.221647 32.226261 32.234607
32.246501 32.262642 32.282943 32.308067 32.338022 32.373437 32.414399 32.461505
32.514904 32.575155 32.642448 32.717295 32.799901 32.890716 32.989935 33.097925
33.214843 33.340956 33.476350 33.621173 33.775417 33.939092 34.112071 34.294216
34.485265 34.684923 34.892784 35.108401 35.331226 35.560663 35.796037 36.036623
36.281635 36.530248 36.781594 37.034779 37.288889
37.666667 37.394438 37.123201 36.853937 36.587605 36.325137 36.067418 35.815294
35.569538 35.330883 35.099965 34.877376 34.663595 34.459066 34.264101 34.078995
33.903888 33.738935 33.584116 33.439460 33.304801 33.180068 33.064964 32.959350
32.862815 32.775185 32.695958 32.624953 32.561593 32.505723 32.456706 32.414439
32.378233 32.348061 32.323187 32.303675 32.288745 32.278564 32.272304 32.270242
32.271498 32.276459 32.284186 32.295176 32.308425 32.324534 32.342432 32.362813
32.384541 32.408392 32.433168 32.459717 32.486788 32.515286 32.543920 32.573643
32.603136 32.633388 32.663074 32.693201 32.722462 32.751869 32.780152 32.808316
32.835148 32.861632 32.886628 32.911090 32.933964 32.956161 32.976723 32.996508
33.014661 33.031975 33.047702 33.062563 33.075914 33.088397 33.099472 33.109696
33.118624 33.126725 33.133648 33.139768 33.144821 33.149089 33.152387 33.154905
33.156532 33.157363 33.157363 33.156532 33.154904 33.152387 33.149089 33.144820
33.139768 33.133646 33.126724 33.118622 33.109693 33.099468 33.088393 33.075907
33.062554 33.047691 33.031960 33.014642 32.996483 32.976691 32.956120 32.933911
32.911022 32.886541 32.861521 32.835007 32.808139 32.779928 32.751589 32.722112
32.692765 32.662533 32.632720 32.602315 32.572635 32.542689 32.513787 32.484970
32.457521 32.430523 32.405219 32.380749 32.358297 32.337074 32.318200 32.300964
32.286420 32.273948 32.264531 32.257653 32.254229 32.253852 32.257378 32.264508
32.276050 32.291814 32.312562 32.338212 32.369482 32.406389 32.449611 32.499247
32.555931 32.619823 32.691510 32.771185 32.859374 32.956279 33.062343 33.177746
33.302835 33.437732 33.582664 33.737668 33.902833 34.078080 34.263346 34.458417
34.663063 34.876923 35.099598 35.330574 35.569291 35.815089 36.067258 36.325009
36.587510 36.853867 37.123157 37.394416 37.666667
38.044444 37.754082 37.464778 37.177578 36.893511 36.613564 36.338693 36.069785
35.807688 35.553157 35.306904 35.069525 34.841578 34.623484 34.415643 34.218295
34.031683 33.855871 33.690961 33.536851 33.393527 33.260733 33.138372 33.026055
32.923631 32.830602 32.746798 32.671630 32.604943 32.546073 32.494912 32.450732
32.413498 32.382425 32.357574 32.338104 32.324187 32.314925 32.310609 32.310278
32.314348 32.321787 32.333136 32.347287 32.364896 32.384776 32.407694 32.432378
32.459695 32.488294 32.519126 32.550770 32.584250 32.618088 32.653364 32.688560
32.724800 32.760550 32.796960 32.832502 32.868342 32.902982 32.937588 32.970715
33.003516 33.034621 33.065155 33.093842 33.121764 33.147754 33.172838 33.195967
33.218098 33.238306 33.257469 33.274785 33.291045 33.305567 33.319049 33.330923