# vtk DataFile Version 3.0
Steady-state temperature (Jacobi)
ASCII
DATASET STRUCTURED_POINTS
DIMENSIONS 181 181 1
ORIGIN 0.0 0.0 0.0
SPACING 0.05 0.05 1.0
POINT_DATA 32761
SCALARS Temperature float 1
LOOKUP_TABLE default
32.000000 32.000000 32.000000 32.000000 32.000000 32.000000 32.000000 32.000000
32.000000 32.000000 32.000000 32.000000 32.000000 32.000000 32.000000 32.000000
32.000000 32.000000 32.000000 32.000000 32.000000 32.000000 32.000000 32.000000
32.000000 32.000000 32.000000 32.000000 32.000000 32.000000 32.000000 32.000000
32.000000 32.000000 32.000000 32.000000 32.000000 32.000000 32.000000 32.000000
32.000000 32.000000 32.000000 32.000000 32.000000 32.000000 32.000000 32.000000
32.000000 32.000000 32.000000 32.000000 32.000000 32.000000 32.000000 32.000000
32.000000 32.000000 32.000000 32.000000 32.000000 32.000000 32.000000 32.000000
32.000000 32.000000 32.000000 32.000000 32.000000 32.000000 32.000000 32.000000
32.000000 32.000000 32.000000 32.000000 32.000000 32.000000 32.000000 32.000000
32.000000 32.000000 32.000000 32.000000 32.000000 32.000000 32.000000 32.000000
32.000000 32.000000 32.000000 32.000000 32.000000 32.000000 32.000000 32.000000
32.000000 32.000000 32.000000 32.000000 32.000000 32.000000 32.000000 32.000000
32.000000 32.000000 32.000000 32.000000 32.000000 32.000000 32.000000 32.000000
32.000000 32.000000 32.000000 32.000000 32.000000 32.000000 32.000000 32.000000
32.000000 32.000000 32.000000 32.000000 32.000000 32.000000 32.000000 32.000000
32.000000 32.000000 32.000000 32.000000 32.000000 32.000000 32.000000 32.000000
32.000000 32.000000 32.000000 32.000000 32.000000 32.000000 32.000000 32.000000
32.000000 32.000000 32.000000 32.000000 32.000000 32.000000 32.000000 32.000000
32.000000 32.000000 32.000000 32.000000 32.000000 32.000000 32.000000 32.000000
32.000000 32.000000 32.000000 32.000000 32.000000 32.000000 32.000000 32.000000
32.000000 32.000000 32.000000 32.000000 32.000000 32.000000 32.000000 32.000000
32.000000 32.000000 32.000000 32.000000 32.000000
32.377778 32.372935 32.368124 32.363383 32.358737 32.354229 32.349879 32.345734
32.341806 32.338150 32.334769 32.331722 32.329005 32.326680 32.324736 32.323239
32.322170 32.321597 32.321492 32.321928 32.322868 32.324385 32.326435 32.329094
32.332307 32.336152 32.340564 32.345625 32.351259 32.357549 32.364409 32.371924
32.379998 32.388716 32.397973 32.407856 32.418251 32.429242 32.440709 32.452736
32.465194 32.478168 32.491521 32.505338 32.519477 32.534021 32.548822 32.563965
32.579297 32.594901 32.610623 32.626545 32.642511 32.658603 32.674665 32.690778
32.706787 32.722772 32.738582 32.754295 32.769765 32.785067 32.800061 32.814822
32.829215 32.843313 32.856989 32.870313 32.883167 32.895618 32.907557 32.919048
32.929991 32.940446 32.950322 32.959677 32.968429 32.976630 32.984210 32.991214
32.997582 33.003353 33.008480 33.012992 33.016854 33.020088 33.022668 33.024611
33.025899 33.026541 33.026532 33.025871 33.024565 33.022603 33.020004 33.016750
33.012867 33.008333 33.003184 32.997388 32.990994 32.983964 32.976355 32.968123
32.959338 32.949949 32.940035 32.929540 32.918555 32.907019 32.895032 32.882529
32.869620 32.856237 32.842500 32.828336 32.813874 32.799039 32.783967 32.768582
32.753025 32.737221 32.721314 32.705228 32.689113 32.672889 32.656711 32.640498
32.624406 32.608353 32.592495 32.576751 32.561274 32.545981 32.531025 32.516322
32.502021 32.488037 32.474513 32.461366 32.448731 32.436525 32.424878 32.413704
32.403126 32.393059 32.383617 32.374716 32.366461 32.358767 32.351730 32.345267
32.339465 32.334241 32.329672 32.325678 32.322324 32.319534 32.317363 32.315735
32.314698 32.314178 32.314214 32.314733 32.315767 32.317245 32.319190 32.321536
32.324296 32.327409 32.330880 32.334650 32.338719 32.343031 32.347577 32.352309
32.357210 32.362235 32.367363 32.372553 32.377778
32.755556 32.745890 32.736294 32.726826 32.717566 32.708558 32.699896 32.691610
32.683802 32.676488 32.669781 32.663681 32.658308 32.653650 32.649832 32.646826
32.644766 32.643604 32.643483 32.644336 32.646312 32.649326 32.653532 32.658827
32.665367 32.673033 32.681983 32.692078 32.703481 32.716031 32.729896 32.744895
32.761197 32.778602 32.797280 32.817014 32.837974 32.859925 32.883036 32.907058
32.932159 32.958073 32.984971 33.012572 33.041044 33.070098 33.099900 33.130150
33.161015 33.192188 33.223834 33.255642 33.287776 33.319923 33.352246 33.384435
33.416648 33.448581 33.480391 33.511780 33.542902 33.573468 33.603632 33.633115
33.662067 33.690224 33.717732 33.744343 33.770195 33.795061 33.819072 33.842019
33.864025 33.884901 33.904763 33.923441 33.941041 33.957414 33.972656 33.986638
33.999443 34.010964 34.021272 34.030280 34.038044 34.044500 34.049688 34.053565
34.056155 34.057437 34.057419 34.056100 34.053473 34.049558 34.044332 34.037836
34.030030 34.020978 34.010625 33.999055 33.986199 33.972163 33.956864 33.940430
33.922764 33.904016 33.884080 33.863124 33.841033 33.817996 33.793888 33.768920
33.742957 33.716230 33.688598 33.660309 33.631218 33.601587 33.571267 33.540536
33.509240 33.477668 33.445666 33.413530 33.381105 33.348694 33.316140 33.283750
33.251365 33.219295 33.187378 33.155924 33.124768 33.094218 33.064107 33.034735
33.005937 32.978003 32.950765 32.924503 32.899049 32.874670 32.851196 32.828881
32.807554 32.787453 32.768407 32.750636 32.733970 32.718613 32.704394 32.691498
32.679759 32.669339 32.660075 32.652112 32.645289 32.639732 32.635284 32.632050
32.629879 32.628859 32.628842 32.629898 32.631886 32.634856 32.638676 32.643379
32.648837 32.655070 32.661957 32.669501 32.677591 32.686214 32.695267 32.704725
32.714493 32.724534 32.734763 32.745128 32.755556
33.133333 33.118890 33.104543 33.090405 33.076553 33.063118 33.050156 33.037814
33.026128 33.015257 33.005216 32.996179 32.988137 32.981277 32.975564 32.971197
32.968118 32.966534 32.966361 32.967816 32.970788 32.975503 32.981820 32.989972
32.999792 33.011518 33.024954 33.040343 33.057459 33.076551 33.097362 33.120144
33.144613 33.171021 33.199057 33.228976 33.260437 33.293696 33.328387 33.364766
33.402445 33.441676 33.482051 33.523822 33.566561 33.610519 33.655253 33.701011
33.747340 33.794485 33.841984 33.890081 33.938311 33.986914 34.035425 34.084083
34.132427 34.180693 34.228427 34.275864 34.322563 34.368752 34.414008 34.458555
34.501989 34.544529 34.585792 34.625990 34.664767 34.702326 34.738337 34.772993
34.805993 34.837520 34.867302 34.895506 34.921894 34.946617 34.969466 34.990576
35.009771 35.027166 35.042616 35.056216 35.067853 35.077599 35.085374 35.091227
35.095109 35.097044 35.097017 35.095027 35.091089 35.085180 35.077347 35.067540
35.055841 35.042176 35.026657 35.009190 34.989918 34.968726 34.945791 34.920976
34.894491 34.866182 34.836288 34.804642 34.771515 34.736722 34.700567 34.662854
34.623913 34.583539 34.542090 34.499354 34.455710 34.410941 34.365451 34.319014
34.272055 34.224343 34.176319 34.127751 34.079089 34.030098 33.981239 33.932273
33.883666 33.835177 33.787270 33.739703 33.692939 33.646730 33.601533 33.557099
33.513871 33.471600 33.430714 33.390962 33.352755 33.315839 33.280605 33.246799
33.214788 33.184318 33.155731 33.128773 33.103760 33.080439 33.059099 33.039489
33.021869 33.005992 32.992088 32.979914 32.969673 32.961126 32.954447 32.949403
32.946141 32.944435 32.944403 32.945828 32.948801 32.953114 32.958833 32.965760
32.973935 32.983171 32.993485 33.004701 33.016814 33.029661 33.043215 33.057326
33.071947 33.086943 33.102246 33.117738 33.133333
33.511111 33.491949 33.472927 33.454162 33.435815 33.417977 33.400833 33.384446
33.369019 33.354588 33.341376 33.329387 33.318861 33.309771 33.302373 33.296608
33.292745 33.290692 33.290730 33.292732 33.296991 33.303341 33.312088 33.323027
33.336474 33.352185 33.370483 33.391084 33.414319 33.439865 33.468056 33.498532
33.531628 33.566948 33.604829 33.644838 33.687312 33.731782 33.778589 33.827228
33.878038 33.930487 33.984911 34.040752 34.098343 34.157104 34.217366 34.278530
34.340925 34.403938 34.467894 34.532175 34.597103 34.662054 34.727348 34.792367
34.857425 34.921912 34.986140 35.049512 35.112336 35.174034 35.234908 35.294404
35.352818 35.409625 35.465112 35.518784 35.570920 35.621060 35.669470 35.715729
35.760086 35.802162 35.842188 35.879824 35.915285 35.948270 35.978973 36.007135
36.032925 36.056129 36.076886 36.095025 36.110659 36.123657 36.134102 36.141908
36.147123 36.149704 36.149667 36.147013 36.141724 36.133843 36.123321 36.110242
36.094525 36.076299 36.055450 36.032150 36.006258 35.977988 35.947170 35.914062
35.878471 35.840695 35.800520 35.758286 35.713758 35.667319 35.618715 35.568369
35.516014 35.462109 35.406375 35.349305 35.290612 35.230820 35.169634 35.107606
35.044434 34.980695 34.916083 34.851191 34.785709 34.720247 34.654489 34.589054
34.523623 34.458819 34.394319 34.330744 34.267768 34.206004 34.145124 34.085728
34.027485 33.970978 33.915873 33.862730 33.811214 33.761861 33.714331 33.669132
33.625924 33.585181 33.546564 33.510513 33.476691 33.445499 33.416602 33.390367
33.366460 33.345209 33.326287 33.309982 33.295973 33.284510 33.275280 33.268494
33.263848 33.261516 33.261204 33.263050 33.266771 33.272469 33.279876 33.289059
33.299763 33.312024 33.325601 33.340500 33.356496 33.373565 33.391499 33.410248
33.429621 33.449541 33.469839 33.490412 33.511111
33.888889 33.865098 33.841469 33.818190 33.795393 33.773294 33.751992 33.731729
33.712568 33.694777 33.678380 33.663669 33.650630 33.639574 33.630447 33.623581
33.618878 33.616687 33.616868 33.619784 33.625249 33.633641 33.644729 33.658899
33.675874 33.696053 33.719106 33.745441 33.774682 33.807242 33.842695 33.881461
33.923064 33.967927 34.015529 34.066293 34.119653 34.176034 34.234825 34.296450
34.360261 34.426679 34.495021 34.565703 34.638013 34.712366 34.788020 34.865389
34.943713 35.023398 35.103674 35.184943 35.266427 35.348525 35.430460 35.512625
35.594251 35.675728 35.756301 35.836353 35.915151 35.993073 36.069412 36.144540
36.217781 36.289499 36.359056 36.426804 36.492148 36.555426 36.616089 36.674458
36.730033 36.783115 36.833253 36.880728 36.925139 36.966741 37.005187 37.040703
37.072993 37.102251 37.128236 37.151107 37.170677 37.187065 37.200139 37.209979
37.216506 37.219760 37.219715 37.216369 37.209750 37.199815 37.186645 37.170156
37.150483 37.127503 37.101403 37.072025 37.039607 37.003957 36.965367 36.923611
36.879037 36.831388 36.781064 36.727783 36.671997 36.613401 36.552497 36.488961
36.423343 36.355304 36.285437 36.213390 36.139800 36.064304 35.987574 35.909240
35.830007 35.749497 35.668443 35.586460 35.504304 35.421585 35.339071 35.256369
35.174255 35.092332 35.011378 34.930989 34.851939 34.773820 34.697393 34.622247
34.549123 34.477607 34.408415 34.341130 34.276438 34.213919 34.154224 34.096933
34.042657 33.990974 33.942455 33.896678 33.854169 33.814508 33.778174 33.744753
33.714674 33.687527 33.663696 33.642776 33.625101 33.610277 33.598590 33.589653
33.583708 33.580380 33.579863 33.581795 33.586327 33.593111 33.602256 33.613430
33.626700 33.641753 33.658615 33.676994 33.696878 33.717995 33.740298 33.763538
33.787633 33.812358 33.837600 33.863158 33.888889
34.266667 34.238345 34.210235 34.182513 34.155425 34.129108 34.103842 34.079721
34.057055 34.035898 34.016585 33.999126 33.983881 33.970814 33.960308 33.952276
33.947126 33.944718 33.945479 33.949215 33.956371 33.966698 33.980656 33.997939
34.019021 34.043538 34.071974 34.103906 34.139828 34.179258 34.222696 34.269602
34.320479 34.374732 34.432866 34.494228 34.559328 34.627457 34.699124 34.773573
34.851309 34.931532 35.014743 35.100102 35.188107 35.277882 35.369923 35.463328
35.558584 35.654771 35.752372 35.850456 35.949499 36.048567 36.148132 36.247264
36.346431 36.444714 36.542577 36.639123 36.734808 36.828765 36.921443 37.012010
37.100907 37.187344 37.271749 37.353384 37.432659 37.508889 37.582469 37.652769
37.720163 37.784081 37.844871 37.902023 37.955860 38.005933 38.052531 38.095269
38.134400 38.169604 38.201091 38.228605 38.252315 38.272029 38.287868 38.299705
38.307612 38.311526 38.311472 38.307448 38.299430 38.287480 38.271525 38.251691
38.227857 38.200211 38.168588 38.133240 38.093956 38.051055 38.004285 37.954028
37.899996 37.842634 37.781621 37.717465 37.649817 37.579245 37.505375 37.428837
37.349233 37.267249 37.182472 37.095640 37.006325 36.915314 36.822168 36.727716
36.631510 36.534414 36.435974 36.337084 36.237282 36.137484 36.037224 35.937431
35.837633 35.738765 35.640349 35.543318 35.447190 35.352886 35.259919 35.169191
35.080209 34.993851 34.909619 34.828357 34.749564 34.674043 34.601292 34.532071
34.465873 34.403409 34.344174 34.288827 34.236863 34.188885 34.144392 34.103930
34.067004 34.034101 34.004732 33.979329 33.957408 33.939345 33.924668 33.913694
33.905964 33.901740 33.900577 33.902683 33.907630 33.915573 33.926103 33.939324
33.954848 33.972730 33.992605 34.014482 34.038019 34.063182 34.089654 34.117359
34.146011 34.175490 34.205541 34.236008 34.266667
34.644444 34.611725 34.579234 34.547241 34.515928 34.485605 34.456409 34.428685
34.402521 34.378296 34.356047 34.336184 34.318690 34.304004 34.292053 34.283301
34.277617 34.275488 34.276724 34.281832 34.290556 34.303426 34.320119 34.341180
34.366220 34.395799 34.429457 34.467767 34.510201 34.557339 34.608585 34.664525
34.724494 34.789084 34.857562 34.930522 35.007169 35.088095 35.172444 35.260806
35.352272 35.447426 35.545309 35.646503 35.750003 35.856385 35.964611 36.075250
36.187235 36.301131 36.415852 36.531956 36.648350 36.765584 36.882568 36.999845
37.116334 37.232575 37.347507 37.461662 37.574010 37.685073 37.793862 37.900890
38.005213 38.107332 38.206357 38.302776 38.395757 38.485770 38.572047 38.655037
38.734038 38.809475 38.880716 38.948154 39.011231 39.070302 39.124886 39.175295
39.221123 39.262638 39.299507 39.331951 39.359710 39.382953 39.401495 39.415450
39.424707 39.429322 39.429258 39.424516 39.415130 39.401043 39.382366 39.358983
39.331078 39.298482 39.261454 39.219770 39.173764 39.123166 39.068381 39.009095
38.945790 38.878109 38.806607 38.730893 38.651594 38.568288 38.481673 38.391300
38.297936 38.201109 38.101651 37.999071 37.894260 37.786716 37.677380 37.565739
37.452783 37.337987 37.222381 37.105433 36.988202 36.870148 36.752354 36.634274
36.517000 36.399980 36.284309 36.169429 36.056427 35.944739 35.835433 35.727940
35.623301 35.520942 35.421868 35.325501 35.232803 35.143191 35.057579 34.975380
34.897452 34.823208 34.753448 34.687581 34.626347 34.569157 34.516683 34.468343
34.424741 34.385300 34.350558 34.319946 34.293934 34.271965 34.254440 34.240817
34.231431 34.225756 34.224061 34.225839 34.231298 34.239950 34.251944 34.266813
34.284648 34.305010 34.327933 34.353003 34.380204 34.409152 34.439778 34.471730
34.504892 34.538947 34.573732 34.608966 34.644444
35.022222 34.985241 34.948547 34.912376 34.877062 34.842790 34.809936 34.778631
34.749290 34.721988 34.697177 34.674872 34.655558 34.639188 34.626279 34.616716
34.611046 34.609085 34.611405 34.617752 34.628721 34.643982 34.664151 34.688823
34.718630 34.753089 34.792847 34.837341 34.887231 34.941874 35.001938 35.066701
35.136837 35.211547 35.291506 35.375843 35.465231 35.558728 35.657006 35.759055
35.865543 35.975400 36.089290 36.206087 36.326450 36.449206 36.575007 36.702646
36.832766 36.964133 37.097383 37.231267 37.366414 37.501571 37.637359 37.772532
37.907705 38.041649 38.174973 38.306478 38.436763 38.564670 38.690789 38.814012
38.934916 39.052451 39.167180 39.278118 39.385812 39.489346 39.589245 39.684670
39.776119 39.862833 39.945276 40.022772 40.095749 40.163612 40.226747 40.284645
40.337642 40.385314 40.427944 40.465193 40.497285 40.523967 40.545402 40.561420
40.572120 40.577417 40.577345 40.571901 40.561054 40.544885 40.523297 40.496455
40.464197 40.426774 40.383963 40.336098 40.282898 40.224784 40.161419 40.093311
40.020073 39.942299 39.859558 39.772527 39.680739 39.584952 39.484667 39.380722
39.272590 39.161186 39.045961 38.927900 38.806439 38.682626 38.555882 38.427315
38.296335 38.164097 38.030003 37.895250 37.759230 37.623170 37.486456 37.350333
37.214179 37.079249 36.944913 36.812422 36.681141 36.552303 36.425267 36.301242
36.179578 36.061450 35.946200 35.834958 35.727061 35.623586 35.523865 35.428914
35.338063 35.252262 35.170838 35.094672 35.023091 34.956902 34.895436 34.839424
34.788200 34.742419 34.701425 34.665792 34.634876 34.609175 34.588058 34.571946
34.560225 34.553241 34.550399 34.551973 34.557391 34.566855 34.579819 34.596416
34.616128 34.639023 34.664613 34.692905 34.723442 34.756172 34.790673 34.826837
34.864280 34.902841 34.942174 34.982069 35.022222
35.400000 35.358934 35.318166 35.278047 35.238817 35.200876 35.164409 35.129859
35.097349 35.067366 35.039964 35.015675 34.994481 34.976949 34.962991 34.953208
34.947434 34.946301 34.949565 34.957884 34.970933 34.989394 35.012856 35.042023
35.076396 35.116697 35.162339 35.214058 35.271176 35.334440 35.403084 35.477862
35.557919 35.644013 35.735203 35.832247 35.934122 36.041585 36.153534 36.270722
36.391974 36.518037 36.647671 36.781617 36.918578 37.059286 37.202397 37.348635
37.496621 37.647069 37.798578 37.951851 38.105477 38.260151 38.414464 38.569103
38.722673 38.875853 39.027277 39.177616 39.325542 39.471718 39.614866 39.755639
39.892820 40.027048 40.157176 40.283827 40.405931 40.524088 40.637313 40.746180
40.849791 40.948687 41.042062 41.130419 41.213045 41.290398 41.361860 41.427838
41.487809 41.542121 41.590350 41.632780 41.669081 41.699471 41.723713 41.741956
41.754057 41.760091 41.760009 41.753812 41.741545 41.723134 41.698718 41.668149
41.631661 41.589036 41.540603 41.486074 41.425874 41.359654 41.287933 41.210305
41.127386 41.038716 40.945006 40.845754 40.741761 40.632488 40.518829 40.400209
40.277612 40.150438 40.019752 39.884933 39.747124 39.605687 39.461837 39.314919
39.166211 39.015048 38.862758 38.708667 38.554144 38.398508 38.243153 38.087391
37.932634 37.778184 37.625455 37.473742 37.324449 37.176863 37.032363 36.890228
36.751804 36.616361 36.485198 36.357577 36.234743 36.115951 36.002381 35.893282
35.789764 35.691073 35.598239 35.510508 35.428830 35.352450 35.282234 35.217430
35.158818 35.105654 35.058629 35.017010 34.981399 34.951077 34.926560 34.907145
34.893263 34.884232 34.880397 34.881101 34.886609 34.896289 34.910328 34.928124
34.949790 34.974755 35.003060 35.034169 35.068057 35.104225 35.142581 35.182668
35.224334 35.267164 35.310946 35.355314 35.400000
35.777778 35.732799 35.688183 35.644234 35.601373 35.559837 35.520100 35.482335
35.447064 35.414386 35.384873 35.358547 35.336022 35.317242 35.302859 35.292737
35.287561 35.287108 35.292098 35.302216 35.318211 35.339674 35.367380 35.400824
35.440801 35.486709 35.539359 35.598051 35.663609 35.735232 35.813753 35.898274
35.989632 36.086830 36.190709 36.300176 36.416073 36.537214 36.664436 36.796472
36.934151 37.076127 37.223222 37.374023 37.529340 37.687704 37.849914 38.014454
38.182113 38.351342 38.522921 38.695279 38.869187 39.043069 39.217688 39.391478
39.565191 39.737286 39.908507 40.077351 40.244553 40.408662 40.570402 40.728385
40.883322 41.033900 41.180815 41.322835 41.460636 41.593079 41.720811 41.842791
41.959634 42.070398 42.175661 42.274583 42.367698 42.454271 42.534781 42.608599
42.676145 42.736895 42.791204 42.838653 42.879522 42.913501 42.940791 42.961186
42.974808 42.981553 42.981463 42.974536 42.960730 42.940148 42.912665 42.878488
42.837411 42.789746 42.735210 42.674220 42.606420 42.532333 42.451536 42.364658
42.271218 42.171947 42.066313 41.955153 41.837887 41.715456 41.587241 41.454285
41.315936 41.173333 41.025800 40.874565 40.718930 40.560210 40.397690 40.232757
40.064685 39.894926 39.722742 39.549637 39.374865 39.199967 39.024190 38.849099
38.673934 38.500269 38.327335 38.156701 37.987590 37.821553 37.657800 37.497852
37.340909 37.188446 37.039652 36.895947 36.756511 36.622695 36.493672 36.370717
36.252996 36.141702 36.035998 35.936986 35.843828 35.757533 35.677266 35.603940
35.536725 35.476436 35.422252 35.374889 35.333541 35.298826 35.269953 35.247444
35.230530 35.219638 35.214021 35.214017 35.218906 35.228937 35.243421 35.262521
35.285583 35.312690 35.343224 35.377188 35.414008 35.453612 35.495468 35.539436
35.585029 35.632042 35.680036 35.728743 35.777778
36.155556 36.106882 36.058579 36.011082 35.964693 35.919909 35.876958 35.836393
35.798368 35.763487 35.731823 35.704029 35.680094 35.660716 35.645793 35.636065
35.631338 35.632388 35.638922 35.651753 35.670484 35.695958 35.727673 35.766498
35.811824 35.864538 35.923925 35.990886 36.064597 36.145970 36.234071 36.329819
36.432171 36.542050 36.658304 36.781858 36.911456 37.048018 37.190193 37.338892
37.492675 37.652443 37.816675 37.986261 38.159611 38.337602 38.518585 38.703425
38.890429 39.080452 39.271768 39.465221 39.659074 39.854158 40.048740 40.243641
40.437146 40.630068 40.820727 41.009928 41.196039 41.379856 41.559813 41.736693
41.909008 42.077525 42.240845 42.399716 42.552837 42.700930 42.842798 42.979134
43.108850 43.232601 43.349411 43.459890 43.563178 43.659830 43.749102 43.831489
43.906362 43.974146 44.034329 44.087259 44.132539 44.170437 44.200668 44.223413
44.238501 44.246025 44.245925 44.238203 44.222912 44.199962 44.169519 44.131404
44.085896 44.032728 43.972296 43.904248 43.829096 43.746414 43.656826 43.559839
43.456193 43.345332 43.228114 43.103927 42.973746 42.836913 42.694515 42.545857
42.392135 42.232623 42.068623 41.899383 41.726302 41.548610 41.367795 41.183071
40.996004 40.805797 40.614079 40.420046 40.225376 40.029256 39.833401 39.636988
39.441752 39.246862 39.054054 38.862487 38.673887 38.487399 38.304721 38.124987
37.949851 37.778436 37.612338 37.450669 37.294956 37.144299 37.000147 36.861590
36.729989 36.604428 36.486171 36.374298 36.269972 36.172274 36.082262 35.999018
35.923493 35.854778 35.793715 35.739406 35.692584 35.652368 35.619383 35.592767
35.573042 35.559369 35.552166 35.550625 35.555062 35.564701 35.579765 35.599512
35.624072 35.652742 35.685567 35.721886 35.761659 35.804272 35.849606 35.897095
35.946546 35.997447 36.049532 36.102346 36.155556
36.533333 36.481171 36.429453 36.378552 36.328979 36.281031 36.235283 36.191950
36.151667 36.114563 36.081328 36.052000 36.027323 36.007236 35.992531 35.983049
35.979623 35.981991 35.991023 36.006348 36.028871 36.058107 36.094993 36.138926
36.190865 36.250093 36.317587 36.392508 36.475848 36.566648 36.665909 36.772551
36.887580 37.009796 37.140207 37.277498 37.422672 37.574303 37.733388 37.898397
38.070316 38.247522 38.430987 38.619005 38.812535 39.009799 39.211740 39.416525
39.625082 39.835539 40.048808 40.262992 40.478994 40.694910 40.911630 41.127265
41.342693 41.556056 41.768222 41.977382 42.184396 42.387515 42.587591 42.782956
42.974446 43.160484 43.341892 43.517196 43.687194 43.850524 44.007956 44.158245
44.302125 44.438475 44.567985 44.689656 44.804126 44.910524 45.009425 45.100084
45.183005 45.257570 45.324203 45.382413 45.432536 45.474204 45.507663 45.532668
45.549367 45.557638 45.557530 45.549042 45.532123 45.506895 45.473205 45.431299
45.380929 45.322461 45.255555 45.180703 45.097479 45.006497 44.907253 44.800489
44.685629 44.563542 44.433588 44.296763 44.152375 44.001544 43.843535 43.679589
43.508935 43.332933 43.150782 42.963956 42.771630 42.575381 42.374368 42.170260
41.962203 41.751945 41.538624 41.324049 41.107351 40.890387 40.672277 40.454912
40.237402 40.021650 39.806754 39.594614 39.384315 39.177734 38.973944 38.774780
38.579302 38.389291 38.203791 38.024513 37.850489 37.683348 37.522107 37.368304
37.220948 37.081471 36.948878 36.824492 36.707313 36.598552 36.497209 36.404378
36.319063 36.242240 36.172923 36.111969 36.058404 36.012968 35.974707 35.944244
35.920647 35.904426 35.894677 35.891800 35.894924 35.904341 35.919217 35.939742
35.965122 35.995450 36.029975 36.068697 36.110915 36.156539 36.204919 36.255882
36.308834 36.363522 36.419411 36.476171 36.533333
36.911111 36.855718 36.800773 36.746800 36.694165 36.643466 36.594982 36.549376
36.506839 36.468095 36.433239 36.403055 36.377534 36.357514 36.342882 36.334523
36.332213 36.336881 36.348186 36.367098 36.393155 36.427360 36.469128 36.519489
36.577732 36.644908 36.720177 36.804609 36.897230 36.999122 37.109181 37.228496
37.355830 37.492273 37.636462 37.789484 37.949850 38.118640 38.294250 38.477746
38.667417 38.864314 39.066629 39.275396 39.488723 39.707626 39.930142 40.157271
40.386996 40.620301 40.855134 41.092462 41.330219 41.569357 41.807814 42.046532
42.283471 42.519565 42.752816 42.984150 43.211631 43.436175 43.655926 43.871788
44.082001 44.287453 44.486493 44.679991 44.866411 45.046598 45.219145 45.384861
45.542471 45.692744 45.834538 45.968572 46.093839 46.210997 46.319177 46.418966
46.509632 46.591679 46.664511 46.728543 46.783315 46.829142 46.865697 46.893194
46.911437 46.920533 46.920417 46.911086 46.892606 46.864866 46.828063 46.781978
46.726940 46.662627 46.589501 46.507144 46.416149 46.316012 46.207460 46.089906
45.964217 45.829733 45.687458 45.536671 45.378512 45.212209 45.039037 44.858183
44.671052 44.476799 44.276955 44.070649 43.859531 43.642710 43.421945 43.196330
42.967719 42.735196 42.500694 42.263287 42.024972 41.784813 41.544852 41.304144
41.064755 40.825728 40.589134 40.354005 40.122394 39.893320 39.668801 39.447841
39.232406 39.021480 38.816964 38.617823 38.425875 38.240070 38.062128 37.890988
37.728261 37.572875 37.426328 37.287538 37.157882 37.036276 36.923970 36.819882
36.725134 36.638648 36.561418 36.492379 36.432393 36.380414 36.337175 36.301653
36.274456 36.254587 36.242533 36.237330 36.239347 36.247655 36.262512 36.283029
36.309356 36.340650 36.376957 36.417485 36.462179 36.510303 36.561709 36.615718
36.672092 36.730217 36.789769 36.850202 36.911111
37.288889 37.230503 37.172648 37.115767 37.060472 37.007116 36.956384 36.908536
36.864326 36.823914 36.788117 36.756990 36.731411 36.711321 36.697654 36.690233
36.690043 36.696784 36.711484 36.733718 36.764550 36.803425 36.851439 36.907901
36.973934 37.048707 37.133366 37.226935 37.330577 37.443174 37.565896 37.697483
37.839107 37.989369 38.149438 38.317776 38.495546 38.681080 38.875526 39.077095
39.286918 39.503093 39.726734 39.955839 40.191501 40.431632 40.677307 40.926369
41.179873 41.435614 41.694627 41.954682 42.216796 42.478732 42.741494 43.002861
43.263825 43.522204 43.778980 44.032028 44.282322 44.527818 44.769478 45.005355
45.236400 45.460775 45.679418 45.890613 46.095278 46.291831 46.481158 46.661819
46.834664 46.998394 47.153812 47.299769 47.437005 47.564520 47.682984 47.791544
47.890789 47.980012 48.059709 48.129319 48.189237 48.239043 48.279026 48.308907
48.328859 48.338743 48.338618 48.328482 48.308275 48.278134 48.237884 48.187801
48.127596 48.057686 47.977672 47.888116 47.788518 47.679583 47.560719 47.432779
47.295089 47.148648 46.992712 46.828428 46.654993 46.473701 46.283701 46.086430
45.881001 45.668991 45.449483 45.224189 44.992169 44.755261 44.512508 44.265860
44.014349 43.760020 43.501898 43.242105 42.979659 42.716741 42.452359 42.188733
41.924861 41.662978 41.402068 41.144362 40.888829 40.637673 40.389843 40.147497
39.909566 39.678139 39.452128 39.233540 39.021265 38.817214 38.620259 38.432199
38.251890 38.081011 37.918406 37.765625 37.621505 37.487460 37.362324 37.247374
37.141448 37.045681 36.958919 36.882157 36.814256 36.756073 36.706487 36.666219
36.634174 36.610939 36.595451 36.588168 36.588064 36.595471 36.609405 36.630079
36.656556 36.688934 36.726328 36.768726 36.815300 36.865933 36.919859 36.976863
37.036242 37.097688 37.160570 37.224489 37.288889
37.666667 37.605584 37.545031 37.485625 37.427804 37.372266 37.319350 37.269833
37.223947 37.182542 37.145739 37.114454 37.088691 37.069429 37.056549 37.051084
37.052787 37.062742 37.080567 37.107390 37.142690 37.187632 37.241551 37.305645
37.379099 37.463135 37.556788 37.661299 37.775548 37.900787 38.035744 38.181673
38.337150 38.503428 38.678933 38.864909 39.059636 39.264347 39.477185 39.699362
39.928894 40.166974 40.411502 40.663646 40.921206 41.185326 41.453723 41.727518
42.004364 42.285359 42.568114 42.853708 43.139735 43.427255 43.713868 44.000621
44.285144 44.568474 44.848292 45.125628 45.398240 45.667148 45.930208 46.188430
46.439784 46.685270 46.922983 47.153910 47.376285 47.591070 47.796649 47.993950
48.181512 48.360219 48.528768 48.687987 48.836732 48.975762 49.104093 49.222402
49.329862 49.427058 49.513319 49.589124 49.653956 49.708183 49.751435 49.783962
49.805543 49.816304 49.816170 49.805140 49.783287 49.750482 49.706944 49.652423
49.587284 49.511157 49.424559 49.327006 49.219168 49.100458 48.971700 48.832215
48.682984 48.523247 48.354144 48.174845 47.986650 47.788674 47.582374 47.366821
47.143627 46.911829 46.673188 46.426718 46.174321 45.914992 45.650764 45.380620
45.106705 44.827997 44.546736 44.261892 43.975782 43.687367 43.399018 43.109688
42.821777 42.534225 42.249438 41.966340 41.687320 41.411283 41.140578 40.874086
40.614096 40.359465 40.112401 39.871738 39.639583 39.414748 39.199227 38.991812
38.794370 38.605676 38.427462 38.258489 38.100347 37.951790 37.814259 37.686507
37.569825 37.462969 37.367079 37.280923 37.205490 37.139565 37.083988 37.037568
37.001000 36.973123 36.954491 36.943978 36.942002 36.947479 36.960695 36.980615
37.007398 37.040061 37.078643 37.122220 37.170716 37.223270 37.279697 37.339203
37.401500 37.465867 37.531919 37.599011 37.666667
38.044444 37.980932 37.918040 37.856292 37.796400 37.738783 37.684240 37.633081
37.586183 37.543743 37.506710 37.475160 37.450111 37.431510 37.420438 37.416707
37.421455 37.434352 37.456587 37.487684 37.528874 37.579530 37.640919 37.712257
37.794840 37.887724 37.992226 38.107240 38.234096 38.371522 38.520856 38.680661
38.852274 39.034095 39.227452 39.430589 39.644818 39.868230 40.102119 40.344432
40.596439 40.855955 41.124224 41.398943 41.681329 41.968978 42.263078 42.561147
42.864346 43.170135 43.479651 43.790321 44.103263 44.415896 44.729320 45.040976
45.351951 45.659733 45.965398 46.266506 46.564127 46.855914 47.142933 47.422951
47.697025 47.963057 48.222092 48.472176 48.714337 48.946780 49.170504 49.383879
49.587865 49.781000 49.964195 50.136158 50.297734 50.447802 50.587129 50.714762