# vtk DataFile Version 3.0
Steady-state temperature (Jacobi)
ASCII
DATASET STRUCTURED_POINTS
DIMENSIONS 181 181 1
ORIGIN 0.0 0.0 0.0
SPACING 0.05 0.05 1.0
POINT_DATA 32761
SCALARS Temperature float 1
LOOKUP_TABLE default
32.000000 32.000000 32.000000 32.000000 32.000000 32.000000 32.000000 32.000000
32.000000 32.000000 32.000000 32.000000 32.000000 32.000000 32.000000 32.000000
32.000000 32.000000 32.000000 32.000000 32.000000 32.000000 32.000000 32.000000
32.000000 32.000000 32.000000 32.000000 32.000000 32.000000 32.000000 32.000000
32.000000 32.000000 32.000000 32.000000 32.000000 32.000000 32.000000 32.000000
32.000000 32.000000 32.000000 32.000000 32.000000 32.000000 32.000000 32.000000
32.000000 32.000000 32.000000 32.000000 32.000000 32.000000 32.000000 32.000000
32.000000 32.000000 32.000000 32.000000 32.000000 32.000000 32.000000 32.000000
32.000000 32.000000 32.000000 32.000000 32.000000 32.000000 32.000000 32.000000
32.000000 32.000000 32.000000 32.000000 32.000000 32.000000 32.000000 32.000000
32.000000 32.000000 32.000000 32.000000 32.000000 32.000000 32.000000 32.000000
32.000000 32.000000 32.000000 32.000000 32.000000 32.000000 32.000000 32.000000
32.000000 32.000000 32.000000 32.000000 32.000000 32.000000 32.000000 32.000000
32.000000 32.000000 32.000000 32.000000 32.000000 32.000000 32.000000 32.000000
32.000000 32.000000 32.000000 32.000000 32.000000 32.000000 32.000000 32.000000
32.000000 32.000000 32.000000 32.000000 32.000000 32.000000 32.000000 32.000000
32.000000 32.000000 32.000000 32.000000 32.000000 32.000000 32.000000 32.000000
32.000000 32.000000 32.000000 32.000000 32.000000 32.000000 32.000000 32.000000
32.000000 32.000000 32.000000 32.000000 32.000000 32.000000 32.000000 32.000000
32.000000 32.000000 32.000000 32.000000 32.000000 32.000000 32.000000 32.000000
32.000000 32.000000 32.000000 32.000000 32.000000 32.000000 32.000000 32.000000
32.000000 32.000000 32.000000 32.000000 32.000000 32.000000 32.000000 32.000000
32.000000 32.000000 32.000000 32.000000 32.000000
32.377778 32.402590 32.427412 32.452258 32.477135 32.502058 32.527033 32.552075
32.577189 32.602390 32.627682 32.653078 32.678582 32.704206 32.729952 32.755832
32.781844 32.808002 32.834300 32.860751 32.887347 32.914100 32.940998 32.968053
32.995251 33.022600 33.050085 33.077713 33.105465 33.133345 33.161333 33.189432
33.217617 33.245889 33.274222 33.302615 33.331037 33.359487 33.387931 33.416366
33.444757 33.473099 33.501353 33.529513 33.557540 33.585425 33.613128 33.640640
33.667920 33.694957 33.721709 33.748165 33.774285 33.800055 33.825437 33.850417
33.874956 33.899042 33.922638 33.945732 33.968288 33.990295 34.011719 34.032551
34.052759 34.072335 34.091249 34.109494 34.127044 34.143893 34.160016 34.175410
34.190053 34.203942 34.217058 34.229399 34.240950 34.251708 34.261660 34.270806
34.279134 34.286645 34.293329 34.299186 34.304211 34.308402 34.311756 34.314272
34.315948 34.316784 34.316779 34.315934 34.314249 34.311724 34.308362 34.304163
34.299132 34.293268 34.286579 34.279064 34.270733 34.261586 34.251634 34.240877
34.229331 34.216995 34.203887 34.190008 34.175378 34.160000 34.143895 34.127068
34.109544 34.091327 34.072446 34.052907 34.032740 34.011954 33.990580 33.968628
33.946133 33.923105 33.899581 33.875573 33.851119 33.826231 33.800948 33.775283
33.749278 33.722943 33.696321 33.669424 33.642292 33.614937 33.587400 33.559692
33.531853 33.503891 33.475847 33.447726 33.419568 33.391377 33.363190 33.335010
33.306871 33.278775 33.250753 33.222804 33.194958 33.167213 33.139593 33.112096
33.084743 33.057530 33.030475 33.003572 32.976837 32.950262 32.923859 32.897619
32.871553 32.845648 32.819913 32.794335 32.768920 32.743654 32.718539 32.693562
32.668723 32.644007 32.619413 32.594925 32.570539 32.546242 32.522026 32.497877
32.473787 32.449743 32.425735 32.401751 32.377778
32.755556 32.805187 32.854841 32.904539 32.954304 33.004155 33.054118 33.104206
33.154449 33.204855 33.255453 33.306250 33.357274 33.408527 33.460036 33.511800
33.563845 33.616164 33.668783 33.721689 33.774905 33.828414 33.882238 33.936352
33.990776 34.045480 34.100480 34.155742 34.211277 34.267046 34.323056 34.379261
34.435667 34.492221 34.548925 34.605720 34.662604 34.719514 34.776445 34.833327
34.890152 34.946847 35.003399 35.059732 35.115830 35.171615 35.227066 35.282105
35.336709 35.390796 35.444345 35.497272 35.549554 35.601109 35.651913 35.701886
35.751004 35.799189 35.846419 35.892618 35.937766 35.981790 36.024672 36.066345
36.106792 36.145950 36.183806 36.220302 36.255426 36.289128 36.321397 36.352188
36.381493 36.409273 36.435522 36.460206 36.483320 36.504837 36.524753 36.543045
36.559710 36.574731 36.588106 36.599821 36.609875 36.618257 36.624968 36.630000
36.633354 36.635026 36.635017 36.633326 36.629954 36.624904 36.618177 36.609779
36.599712 36.587985 36.574599 36.559571 36.542899 36.524605 36.504689 36.483176
36.460069 36.435396 36.409163 36.381404 36.352125 36.321365 36.289134 36.255476
36.220402 36.183963 36.146173 36.107088 36.066723 36.025141 35.982360 35.938446
35.893420 35.847354 35.800268 35.752240 35.703291 35.653501 35.602895 35.551552
35.499497 35.446814 35.393526 35.339716 35.285408 35.230685 35.175567 35.120137
35.064414 35.008477 34.952344 34.896091 34.839731 34.783338 34.726922 34.670552
34.614233 34.558032 34.501948 34.446043 34.390315 34.334816 34.279542 34.224541
34.169803 34.115371 34.061231 34.007420 33.953922 33.900767 33.847935 33.795451
33.743293 33.691481 33.639988 33.588830 33.537979 33.487444 33.437196 33.387239
33.337544 33.288109 33.238905 33.189925 33.141140 33.092540 33.044096 32.995794
32.947604 32.899510 32.851486 32.803509 32.755556
33.133333 33.207801 33.282302 33.356871 33.431537 33.506338 33.581299 33.656459
33.731839 33.807479 33.883392 33.959621 34.036172 34.113089 34.190369 34.268056
34.346141 34.424664 34.503610 34.583017 34.662862 34.743178 34.823935 34.905163
34.986823 35.068940 35.151468 35.234426 35.317758 35.401481 35.485529 35.569911
35.654555 35.739465 35.824558 35.909834 35.995201 36.080653 36.166092 36.251506
36.336789 36.421924 36.506800 36.591394 36.675591 36.759363 36.842592 36.925245
37.007203 37.088429 37.168803 37.248288 37.326760 37.404185 37.480439 37.555487
37.629210 37.701573 37.772460 37.841838 37.909599 37.975709 38.040068 38.102645
38.163346 38.222146 38.278956 38.333756 38.386465 38.437067 38.485489 38.531718
38.575690 38.617397 38.656782 38.693838 38.728519 38.760819 38.790700 38.818158
38.843161 38.865708 38.885773 38.903357 38.918439 38.931021 38.941088 38.948641
38.953673 38.956183 38.956169 38.953631 38.948573 38.940994 38.930902 38.918297
38.903194 38.885592 38.865511 38.842952 38.817940 38.790478 38.760598 38.728303
38.693634 38.656595 38.617234 38.575559 38.531625 38.485443 38.437077 38.386541
38.333908 38.279194 38.222482 38.163792 38.103215 38.040773 37.976566 37.910621
37.843044 37.773864 37.703193 37.631066 37.557597 37.482824 37.406866 37.329760
37.251629 37.172509 37.092527 37.011716 36.930203 36.848021 36.765294 36.682053
36.598419 36.514420 36.430172 36.345699 36.261114 36.176435 36.091768 36.007125
35.922607 35.838221 35.754059 35.670122 35.586495 35.503172 35.420230 35.337657
35.255522 35.173807 35.092572 35.011794 34.931523 34.851732 34.772464 34.693685
34.615430 34.537662 34.460406 34.383624 34.307331 34.231488 34.156101 34.081128
34.006571 33.932385 33.858564 33.785064 33.711873 33.638945 33.566264 33.493785
33.421485 33.349322 33.277267 33.205282 33.133333
33.511111 33.610439 33.709813 33.809273 33.908871 34.008640 34.108634 34.208882
34.309438 34.410325 34.511598 34.613271 34.715400 34.817990 34.921097 35.024717
35.128902 35.233640 35.338981 35.444900 35.551445 35.658580 35.766350 35.874706
35.983686 36.093233 36.203378 36.314051 36.425278 36.536976 36.649163 36.761747
36.874738 36.988031 37.101628 37.215414 37.329384 37.443411 37.557482 37.671463
37.785332 37.898946 38.012276 38.125172 38.237600 38.349403 38.460541 38.570854
38.680297 38.788707 38.896037 39.002123 39.106915 39.210251 39.312081 39.412244
39.510692 39.607269 39.701928 39.794520 39.885000 39.973228 40.059162 40.142670
40.223717 40.302180 40.378028 40.451149 40.521517 40.589032 40.653673 40.715349
40.774047 40.829686 40.882256 40.931689 40.977977 41.021062 41.060941 41.097565
41.130933 41.161005 41.187782 41.211234 41.231360 41.248140 41.261573 41.271647
41.278361 41.281708 41.281690 41.278306 41.271556 41.261448 41.247982 41.231172
41.211017 41.187542 41.160744 41.130656 41.097277 41.060647 41.020769 40.977692
40.931419 40.882010 40.829472 40.773874 40.715229 40.653615 40.589049 40.521622
40.451354 40.378349 40.302632 40.224316 40.143433 40.060107 39.974374 39.886368
39.796130 39.703804 39.609434 39.513170 39.415062 39.315265 39.213830 39.110919
39.006581 38.900983 38.794174 38.686320 38.577468 38.467785 38.357315 38.246221
38.134543 38.022441 37.909947 37.797218 37.684279 37.571278 37.458234 37.345288
37.232450 37.119851 37.007495 36.895500 36.783864 36.672694 36.561980 36.451816
36.342185 36.233172 36.124748 36.016989 35.909860 35.803423 35.697637 35.592554
35.488127 35.384395 35.281308 35.178893 35.077097 34.975936 34.875354 34.775357
34.675887 34.576940 34.478458 34.380427 34.282788 34.185521 34.088566 33.991896
33.895454 33.799204 33.703093 33.607079 33.511111
33.888889 34.013110 34.137386 34.261776 34.386330 34.511111 34.636160 34.761544
34.887296 35.013485 35.140134 35.267314 35.395035 35.523369 35.652317 35.781946
35.912247 36.043283 36.175033 36.307557 36.440818 36.574873 36.709672 36.845264
36.981585 37.118678 37.256463 37.394976 37.534123 37.673930 37.814287 37.955214
38.096585 38.238409 38.380548 38.523001 38.665615 38.808379 38.951129 39.093845
39.236350 39.378614 39.520452 39.661826 39.802541 39.942551 40.081657 40.219806
40.356794 40.492564 40.626910 40.759771 40.890941 41.020357 41.147818 41.273260
41.396486 41.517434 41.635913 41.751866 41.865110 41.975592 42.083140 42.187706
42.289132 42.387373 42.482285 42.573832 42.661880 42.746401 42.827276 42.904482
42.977914 43.047557 43.113318 43.175187 43.233085 43.287005 43.336883 43.382714
43.424445 43.462075 43.495562 43.524905 43.550074 43.571068 43.587867 43.600470
43.608865 43.613054 43.613031 43.608797 43.600357 43.587711 43.570872 43.549839
43.524637 43.495263 43.461751 43.424101 43.382357 43.336519 43.286643 43.232732
43.174853 43.113014 43.047293 42.977703 42.904335 42.827208 42.746427 42.662016
42.574094 42.482692 42.387944 42.289885 42.188666 42.084327 41.977030 41.866825
41.753885 41.638264 41.520146 41.399590 41.276789 41.151805 41.024838 40.895951
40.765351 40.633099 40.499405 40.364330 40.228082 40.090719 39.952449 39.813324
39.673547 39.533165 39.392374 39.251214 39.109873 38.968381 38.826917 38.685502
38.544305 38.403335 38.262748 38.122546 37.982870 37.843710 37.705195 37.567306
37.430156 37.293716 37.158085 37.023226 36.889221 36.756026 36.623710 36.492219
36.361607 36.231817 36.102887 35.974754 35.847444 35.720887 35.595099 35.470007
35.345612 35.221841 35.098683 34.976064 34.853963 34.732305 34.611060 34.490154
34.369549 34.249174 34.128981 34.008905 33.888889
34.266667 34.415819 34.565041 34.714395 34.863955 35.013776 35.163938 35.314484
35.465497 35.617010 35.769109 35.921814 36.075210 36.229306 36.384185 36.539841
36.696356 36.853709 37.011977 37.171124 37.331222 37.492217 37.654175 37.817027
37.980829 38.145494 38.311070 38.477453 38.644681 38.812631 38.981330 39.150638
39.320571 39.490972 39.661843 39.833012 40.004469 40.176026 40.347662 40.519172
40.690526 40.861506 41.032069 41.201989 41.371212 41.539502 41.706798 41.872857
42.037613 42.200817 42.362398 42.522107 42.679869 42.835439 42.988739 43.139529
43.287732 43.433114 43.575604 43.714975 43.851162 43.983950 44.113278 44.238947
44.360902 44.478960 44.593073 44.703075 44.808926 44.910476 45.007693 45.100444
45.188706 45.272362 45.351396 45.425706 45.495282 45.560039 45.619971 45.675009
45.725148 45.770333 45.810564 45.845797 45.876033 45.901239 45.921419 45.936551
45.946636 45.951665 45.951637 45.946555 45.936416 45.921234 45.901006 45.875754
45.845477 45.810209 45.769948 45.724739 45.674584 45.619539 45.559609 45.494864
45.425311 45.351036 45.272052 45.188459 45.100275 45.007619 44.910514 44.809097
44.703397 44.593569 44.479652 44.361815 44.240106 44.114711 43.985685 43.853230
43.717408 43.578434 43.436378 43.291467 43.143772 42.993533 42.840825 42.685893
42.528813 42.369835 42.209036 42.046666 41.882798 41.717683 41.551389 41.384163
41.216065 41.047336 40.878028 40.708374 40.538416 40.368375 40.198283 40.028347
39.858588 39.689200 39.520191 39.351738 39.183838 39.016652 38.850164 38.684517
38.519684 38.355791 38.192799 38.030816 37.869794 37.709822 37.550841 37.392926
37.236008 37.080145 36.925260 36.771395 36.618467 36.466503 36.315415 36.165214
36.015811 35.867200 35.719292 35.572068 35.425437 35.279369 35.133774 34.988609
34.843789 34.699261 34.554941 34.410769 34.266667
34.644444 34.818578 34.992788 35.167161 35.341765 35.516690 35.691995 35.867776
36.044077 36.220997 36.398569 36.576893 36.755985 36.935946 37.116776 37.298574
37.481324 37.665119 37.849926 38.035834 38.222790 38.410875 38.600018 38.790290
38.981602 39.174014 39.367414 39.561854 39.757202 39.953494 40.150579 40.348480
40.547026 40.746225 40.945886 41.146005 41.346369 41.546961 41.747552 41.948109
42.148387 42.348341 42.547711 42.746441 42.944257 43.141093 43.336668 43.530905
43.723517 43.914421 44.103327 44.290146 44.474590 44.656567 44.835792 45.012175
45.185436 45.355488 45.522061 45.685074 45.844268 45.999569 46.150735 46.297697
46.440231 46.578279 46.711634 46.840247 46.963931 47.082648 47.196230 47.304648
47.407755 47.505528 47.597842 47.684682 47.765940 47.841608 47.911595 47.975898
48.034443 48.087230 48.134202 48.175359 48.210658 48.240102 48.263660 48.281335
48.293108 48.298982 48.298950 48.293014 48.281179 48.263446 48.239832 48.210336
48.174990 48.133791 48.086785 48.033971 47.975408 47.911097 47.841113 47.765459
47.684229 47.597431 47.505174 47.407475 47.304460 47.196154 47.082703 46.964140
46.840634 46.712223 46.579098 46.441308 46.299061 46.152418 46.001606 45.846693
45.687924 45.525376 45.359309 45.189805 45.017139 44.841398 44.662864 44.481630
44.297984 44.112017 43.924024 43.734092 43.542516 43.349380 43.154976 42.959380
42.762877 42.565536 42.367633 42.169225 41.970577 41.771733 41.572944 41.374242
41.175861 40.977819 40.780333 40.583404 40.387233 40.191807 39.997303 39.803697
39.611146 39.419610 39.229227 39.039945 38.851879 38.664965 38.479300 38.294808
38.111566 37.929489 37.748633 37.568907 37.390347 37.212858 37.036456 36.861040
36.686612 36.513066 36.340389 36.168475 35.997293 35.826739 35.656769 35.487279
35.318214 35.149475 34.980993 34.812676 34.644444
35.022222 35.221388 35.420647 35.620085 35.819801 36.019870 36.220398 36.421446
36.623125 36.825482 37.028629 37.232596 37.437498 37.643347 37.850255 38.058216
38.267340 38.477600 38.689099 38.901792 39.115773 39.330974 39.547483 39.765208
39.984224 40.204418 40.425853 40.648392 40.872083 41.096766 41.322475 41.549025
41.776436 42.004497 42.233213 42.462352 42.691901 42.921608 43.151442 43.381132
43.610633 43.839653 44.068135 44.295772 44.522491 44.747976 44.972141 45.194661
45.415442 45.634153 45.850692 46.064727 46.276154 46.484642 46.690085 46.892158
47.090759 47.285571 47.476496 47.663232 47.845685 48.023572 48.196808 48.365126
48.528452 48.686541 48.839329 48.986594 49.128284 49.264198 49.394296 49.518401
49.636483 49.748387 49.854094 49.953470 50.046503 50.133082 50.213200 50.286766
50.353779 50.414164 50.467923 50.515000 50.555397 50.589073 50.616031 50.636246
50.649718 50.656436 50.656400 50.649612 50.636070 50.615789 50.588767 50.555032
50.514582 50.467459 50.413661 50.353246 50.286214 50.212639 50.132524 50.045963
49.952962 49.853634 49.747994 49.636175 49.518198 49.394221 49.264274 49.128536
48.987050 48.840017 48.687491 48.529697 48.366700 48.198747 48.025915 47.848473
47.666505 47.480301 47.289954 47.095770 46.897849 46.696509 46.491856 46.284218
46.073702 45.860642 45.645145 45.427547 45.207949 44.986689 44.763860 44.539794
44.314575 44.088526 43.861720 43.634467 43.406828 43.179098 42.951322 42.723778
42.496495 42.269731 42.043499 41.818036 41.593337 41.369619 41.146859 40.925249
40.704752 40.485537 40.267550 40.050935 39.835627 39.621746 39.409212 39.198121
38.988384 38.780074 38.573091 38.367487 38.163153 37.960121 37.758276 37.557627
37.358058 37.159559 36.962009 36.765382 36.569557 36.374491 36.180064 35.986218
35.792836 35.599848 35.407143 35.214635 35.022222
35.400000 35.624262 35.848624 36.073199 36.298075 36.523370 36.749162 36.975573
37.202665 37.430565 37.659317 37.889049 38.119788 38.351660 38.584672 38.818947
39.054470 39.291360 39.529577 39.769236 40.010271 40.252786 40.496693 40.742083
40.988842 41.237049 41.486562 41.737446 41.989533 42.242870 42.497263 42.752741
43.009084 43.266303 43.524151 43.782621 44.041441 44.300585 44.559758 44.818916
45.077742 45.336174 45.593877 45.850774 46.106513 46.361002 46.613879 46.865040
47.114113 47.360985 47.605282 47.846883 48.085414 48.320754 48.552531 48.780625
49.004674 49.224561 49.439938 49.650694 49.856497 50.057246 50.252629 50.442557
50.626741 50.805102 50.977377 51.143501 51.303236 51.456531 51.603174 51.743126
51.876202 52.002373 52.121482 52.233509 52.338321 52.435906 52.526154 52.609061
52.684535 52.752579 52.813119 52.866161 52.911649 52.949589 52.979944 53.002716
53.017885 53.025454 53.025414 53.017767 53.002521 52.979674 52.949250 52.911244
52.865697 52.812604 52.752021 52.683945 52.608449 52.525533 52.435291 52.337725
52.232951 52.120978 52.001945 51.875869 51.742913 51.603105 51.456633 51.303537
51.144031 50.978168 50.806189 50.628160 50.444347 50.254831 50.059902 49.859652
49.654397 49.444239 49.229514 49.010333 48.787049 48.559780 48.328892 48.094507
47.857002 47.616497 47.373374 47.127752 46.880013 46.630268 46.378897 46.126001
45.871952 45.616840 45.361023 45.104579 44.847850 44.590896 44.334041 44.077328
43.821059 43.565260 43.310209 43.055912 42.802624 42.550329 42.299258 42.049377
41.800888 41.553741 41.308112 41.063932 40.821349 40.580282 40.340852 40.102961
39.866707 39.631979 39.398849 39.167198 38.937071 38.708343 38.481035 38.255015
38.030284 37.806707 37.584261 37.362811 37.142315 36.922639 36.703723 36.485434
36.267698 36.050387 35.833411 35.616649 35.400000
35.777778 36.027200 36.276741 36.526508 36.776630 37.027201 37.278354 37.530170
37.782787 38.036266 38.290750 38.546279 38.802996 39.060921 39.320194 39.580810
39.842908 40.106456 40.371585 40.638239 40.906539 41.176401 41.447935 41.721030
41.995780 42.272044 42.549903 42.829185 43.109954 43.392006 43.675387 43.959866
44.245464 44.531922 44.819242 45.107135 45.395582 45.684267 45.973149 46.261887
46.550421 46.838387 47.125704 47.411990 47.697148 47.980778 48.262769 48.542711
48.820478 49.095654 49.368105 49.637413 49.903439 50.165767 50.424257 50.678501
50.928363 51.173445 51.413618 51.648502 51.877977 52.101685 52.319515 52.531134
52.736448 52.935149 53.127156 53.312192 53.490191 53.660905 53.824283 53.980108
54.128342 54.268797 54.401447 54.526132 54.642838 54.751430 54.851902 54.944144
55.028156 55.103850 55.171230 55.230228 55.280850 55.323047 55.356824 55.382151
55.399030 55.407447 55.407403 55.398900 55.381936 55.356529 55.322675 55.280407
55.229720 55.170666 55.103240 55.027511 54.943476 54.851225 54.750759 54.642191
54.525527 54.400904 54.268338 54.127992 53.979890 53.824227 53.661038 53.490546
53.312802 53.128058 52.936379 52.738049 52.533147 52.321985 52.104660 51.881509
51.652643 51.418423 51.178973 50.934677 50.685664 50.432338 50.174835 49.913570
49.648683 49.380595 49.109446 48.835662 48.559374 48.281009 48.000689 47.718832
47.435550 47.151249 46.866026 46.580272 46.294066 46.007778 45.721470 45.435490
45.149877 44.864954 44.580741 44.297533 44.015326 43.734390 43.454698 43.176489
42.899718 42.624593 42.351049 42.079264 41.809154 41.540869 41.274308 41.009591
40.746603 40.485435 40.225960 39.968241 39.712141 39.457697 39.204763 38.953352
38.703313 38.454634 38.207162 37.960861 37.715579 37.471260 37.227753 36.984983
36.742804 36.501123 36.259800 36.018729 35.777778
36.155556 36.430214 36.704999 36.980047 37.255471 37.531417 37.807980 38.085315
38.363498 38.642687 38.922939 39.204412 39.487140 39.771282 40.056847 40.343988
40.632689 40.923097 41.215169 41.509041 41.804640 42.102092 42.401293 42.702355
43.005141 43.309748 43.616006 43.923992 44.233505 44.544600 44.857043 45.170869
45.485807 45.801872 46.118762 46.436464 46.754647 47.073276 47.391988 47.710725
48.029099 48.347029 48.664103 48.980219 49.294946 49.608164 49.919425 50.228596
50.535217 50.839142 51.139909 51.437363 51.731041 52.020786 52.306141 52.586949
52.862764 53.133436 53.398536 53.657921 53.911183 54.158194 54.398572 54.632200
54.858727 55.078054 55.289860 55.494064 55.690378 55.878736 56.058886 56.230779
56.394193 56.549096 56.695299 56.832781 56.961383 57.081096 57.191787 57.293457
57.385997 57.469414 57.543622 57.608631 57.664377 57.710867 57.748060 57.775962
57.794548 57.803821 57.803774 57.794407 57.775730 57.747740 57.710464 57.663896
57.608081 57.543013 57.468754 57.385300 57.292736 57.191058 57.080375 56.960689
56.832134 56.694721 56.548613 56.393828 56.230562 56.058847 55.878908 55.690793
55.494762 55.290879 55.079436 54.860516 54.634443 54.401318 54.161497 53.915098
53.662506 53.403852 53.139549 52.869741 52.594861 52.315061 52.030795 51.742218
51.449794 51.153681 50.854349 50.551952 50.246960 49.939522 49.630100 49.318832
49.006171 48.692237 48.377469 48.061970 47.746159 47.430116 47.114238 46.798583
46.483520 46.169084 45.855616 45.543125 45.231921 44.921990 44.613609 44.306742
44.001631 43.698217 43.396710 43.097031 42.799355 42.503584 42.209861 41.918069
41.628321 41.340485 41.054642 40.770647 40.488553 40.208204 39.929624 39.652651
39.377281 39.103348 38.830822 38.559536 38.289437 38.020357 37.752221 37.484866
37.218197 36.952056 36.686332 36.420874 36.155556
36.533333 36.833304 37.133420 37.433814 37.734641 38.036017 38.338107 38.641008
38.944891 39.249830 39.556000 39.863452 40.172361 40.482752 40.794797 41.108494
41.424009 41.741309 42.060553 42.381678 42.704829 43.029910 43.357053 43.686128
44.017250 44.350252 44.685232 45.021985 45.360588 45.700801 46.042675 46.385935
46.730607 47.076379 47.423251 47.770877 48.119230 48.467930 48.816924 49.165802
49.514484 49.862532 50.209843 50.555953 50.900738 51.243715 51.584741 51.923318
52.259287 52.592142 52.921714 53.247493 53.569303 53.886639 54.199323 54.506860
54.809076 55.105491 55.395939 55.679963 55.957409 56.227844 56.491133 56.746873
56.994945 57.234983 57.466885 57.690321 57.905211 58.111261 58.308410 58.496401
58.675192 58.844560 59.004480 59.154763 59.295398 59.426227 59.547249 59.658335
59.759492 59.850618 59.931723 60.002729 60.063646 60.114420 60.155060 60.185530
60.205837 60.215964 60.215913 60.205686 60.185281 60.154717 60.113988 60.063132
60.002140 59.931070 59.849913 59.758747 59.657566 59.546471 59.425460 59.294661
59.154080 59.003873 58.844057 58.674820 58.496192 58.308396 58.111477 57.905695
57.691113 57.468028 57.236522 56.996930 56.749353 56.494164 56.231482 55.961715
55.685000 55.401776 55.112196 54.816724 54.515528 54.209094 53.897595 53.581535
53.261091 52.936777 52.608769 52.277584 51.943391 51.606705 51.267685 50.926837
50.584303 50.240576 49.895780 49.550387 49.204499 48.858563 48.512659 48.167206
47.822255 47.478196 47.135055 46.793186 46.452588 46.113581 45.776138 45.440542
45.106740 44.774980 44.445184 44.117563 43.792017 43.468721 43.147555 42.828657
42.511891 42.197360 41.884913 41.574619 41.266315 40.960040 40.655619 40.353061
40.052186 39.752974 39.455240 39.158938 38.863884 38.570006 38.277121 37.985136
37.693874 37.403220 37.113004 36.823095 36.533333
36.911111 37.236480 37.562002 37.887841 38.214134 38.541057 38.868727 39.197328
39.526955 39.857796 40.189924 40.523527 40.858651 41.195484 41.534042 41.874509
42.216869 42.561299 42.907750 43.256388 43.607129 43.960125 44.315254 44.672653
45.032162 45.393897 45.757660 46.123544 46.491311 46.861030 47.232423 47.605530
47.980037 48.355954 48.732927 49.110938 49.489594 49.868849 50.248274 50.627794
51.006948 51.385631 51.763355 52.139989 52.515020 52.888295 53.259280 53.627805
53.993322 54.355646 54.714223 55.068858 55.418998 55.764443 56.104646 56.439412
56.768206 57.090839 57.406800 57.715909 58.017683 58.311958 58.598283 58.876513
59.146234 59.407323 59.659402 59.902374 60.135901 60.359907 60.574097 60.778414
60.972604 61.156630 61.330275 61.493521 61.646185 61.788262 61.919603 62.040212
62.149970 62.248887 62.336870 62.413933 62.480008 62.535106 62.579181 62.612244
62.634266 62.645255 62.645201 62.634106 62.611979 62.578816 62.534646 62.479461
62.413308 62.336177 62.248139 62.149181 62.039398 61.918782 61.787454 61.645412
61.492807 61.329645 61.156114 60.972231 60.778219 60.574113 60.360175 60.136460
59.903268 59.660677 59.409028 59.148422 58.879240 58.601606 58.315941 58.022389
57.721409 57.413165 57.098147 56.776535 56.448847 56.115274 55.776357 55.432293
55.083636 54.730586 54.373705 54.013188 53.649598 53.283120 52.914310 52.543339
52.170751 51.796696 51.421700 51.045890 50.669766 50.293432 49.917358 49.541618
49.166652 48.792504 48.419577 48.047886 47.677798 47.309297 46.942709 46.577992
46.215432 45.854958 45.496817 45.140912 44.787451 44.436314 44.087667 43.741372
43.397558 43.056066 42.716989 42.380154 42.045617 41.713195 41.382911 41.054571
40.728165 40.403497 40.080526 39.759052 39.439009 39.120195 38.802520 38.485786
38.169878 37.854608 37.539839 37.225391 36.911111
37.288889 37.639741 37.990766 38.342123 38.693996 39.046526 39.399908 39.754259
40.109782 40.466568 40.824825 41.184616 41.546149 41.909457 42.274745 42.642015
43.011462 43.383055 43.756979 44.133168 44.511791 44.892743 45.276179 45.661952
46.050196 46.440724 46.833646 47.228733 47.626068 48.025379 48.426723 48.829782
49.234582 49.640764 50.048323 50.456856 50.866326 51.276291 51.686680 52.097014
52.507192 52.916698 53.325404 53.732764 54.138620 54.542405 54.943937 55.342629
55.738282 56.130298 56.518463 56.902176 57.281217 57.654987 58.023264 58.385463
58.741366 59.090408 59.432382 59.766748 60.093317 60.411581 60.721371 61.022218
61.313976 61.596217 61.868822 62.131406 62.383875 62.625890 62.857383 63.078059
63.287872 63.486570 63.674129 63.850336 64.015184 64.168498 64.310281 64.440395
64.558850 64.665537 64.760472 64.843573 64.914856 64.974263 65.021807 65.057451
65.081206 65.093053 65.092996 65.081037 65.057172 65.021422 64.973778 64.914279
64.842914 64.759743 64.664750 64.558020 64.439540 64.309421 64.167653 64.014379
63.849596 63.673482 63.486047 63.287505 63.077884 62.857439 62.626217 62.384517
62.132409 61.870238 61.598097 61.316377 61.025199 60.724997 60.415916 60.098433
59.772718 59.439286 59.098326 58.750386 58.395673 58.034761 57.667867 57.295587
56.918141 56.536138 56.149797 55.759730 55.366149 54.969664 54.570473 54.169173
53.765944 53.361366 52.955595 52.549186 52.142269 51.735370 51.328587 50.922413
50.516915 50.112546 49.709342 49.307717 48.907673 48.509581 48.113411 47.719493
47.327764 46.938511 46.551643 46.167402 45.785672 45.406651 45.030199 44.656473
44.285312 43.916831 43.550851 43.187450 42.826435 42.467843 42.111473 41.757326
41.405192 41.055041 40.706656 40.359978 40.014790 39.671002 39.328399 38.986868
38.646198 38.306253 37.966830 37.627772 37.288889
37.666667 38.043096 38.419705 38.796690 39.174212 39.552478 39.931628 40.311878
40.693343 41.076245 41.460671 41.846844 42.234821 42.624822 43.016872 43.411187
43.807753 44.206778 44.608212 45.012247 45.418793 45.828028 46.239818 46.654320
47.071357 47.491063 47.913215 48.337920 48.764909 49.194259 49.625655 50.059142
50.494356 50.931310 51.369594 51.809184 52.249627 52.690862 53.132394 53.574127
54.015526 54.456461 54.896362 55.335068 55.771978 56.206904 56.639221 57.068717
57.494750 57.917092 58.335092 58.748510 59.156693 59.559398 59.955982 60.346202
60.729434 61.105443 61.473630 61.833777 62.185318 62.528055 62.861461 63.185365
63.499284 63.803073 64.096297 64.378842 64.650321 64.910649 65.159489 65.396781
65.622239 65.835826 66.037301 66.226648 66.403669 66.568363 66.720570 66.860301
66.987429 67.101973 67.203836 67.293037 67.369507 67.433265 67.484262 67.522513
67.547991 67.560705 67.560645 67.547814 67.522220 67.483858 67.432757 67.368903
67.292348 67.203072 67.101151 66.986564 66.859411 66.719676 66.567489 66.402838
66.225890 66.036644 65.835303 65.621885 65.396635 65.159591 64.911044 64.651055
64.379965 64.097862 63.805137 63.501906 63.188611 62.865397 62.532753 62.190852
61.840229 61.481081 61.113983 60.739153 60.357199 59.968357 59.573257 59.172146
58.765674 58.354087 57.938044 57.517788 57.093978 56.666844 56.237038 55.804772
55.370680 54.934952 54.498199 54.060581 53.622680 53.184624 52.746961 52.309784
51.873601 51.438471 51.004858 50.572786 50.142673 49.714507 49.288660 48.865087
48.444113 48.025658 47.610001 47.197032 46.786983 46.379717 45.975421 45.573931
45.175392 44.779618 44.386711 43.996469 43.608951 43.223942 42.841462 42.461287
42.083399 41.707567 41.333739 40.961682 40.591313 40.222398 39.854825 39.488363
39.122877 38.758142 38.393998 38.030233 37.666667
38.044444 38.446541 38.848841 39.251529 39.654824 40.058888 40.463951 40.870152
41.277727 41.686788 42.097573 42.510164 42.924800 43.341528 43.760582 44.181973
44.605929 45.032419 45.461660 45.893579 46.328377 46.765939 47.206442 47.649728
48.095950 48.544901 48.996707 49.451112 49.908213 50.367702 50.829641 51.293674
51.759827 52.227691 52.697257 53.168065 53.640067 54.112756 54.586045 55.059381
55.532639 56.005227 56.476982 56.947276 57.415914 57.882237 58.346022 58.806587
59.263687 59.716625 60.165140 60.608531 61.046526 61.478428 61.903966 62.322457
62.733634 63.136841 63.531825 63.917959 64.295014 64.662404 65.019923 65.367033
65.703559 66.029014 66.343255 66.645847 66.936682 67.215379 67.481861 67.735802
67.977153 68.205638 68.421234 68.623713 68.813072 68.989126 69.151887 69.301208