# vtk DataFile Version 3.0
Steady-state temperature (Jacobi)
ASCII
DATASET STRUCTURED_POINTS
DIMENSIONS 181 181 1
ORIGIN 0.0 0.0 0.0
SPACING 0.05 0.05 1.0
POINT_DATA 32761
SCALARS Temperature float 1
LOOKUP_TABLE default
32.000000 32.000000 32.000000 32.000000 32.000000 32.000000 32.000000 32.000000
32.000000 32.000000 32.000000 32.000000 32.000000 32.000000 32.000000 32.000000
32.000000 32.000000 32.000000 32.000000 32.000000 32.000000 32.000000 32.000000
32.000000 32.000000 32.000000 32.000000 32.000000 32.000000 32.000000 32.000000
32.000000 32.000000 32.000000 32.000000 32.000000 32.000000 32.000000 32.000000
32.000000 32.000000 32.000000 32.000000 32.000000 32.000000 32.000000 32.000000
32.000000 32.000000 32.000000 32.000000 32.000000 32.000000 32.000000 32.000000
32.000000 32.000000 32.000000 32.000000 32.000000 32.000000 32.000000 32.000000
32.000000 32.000000 32.000000 32.000000 32.000000 32.000000 32.000000 32.000000
32.000000 32.000000 32.000000 32.000000 32.000000 32.000000 32.000000 32.000000
32.000000 32.000000 32.000000 32.000000 32.000000 32.000000 32.000000 32.000000
32.000000 32.000000 32.000000 32.000000 32.000000 32.000000 32.000000 32.000000
32.000000 32.000000 32.000000 32.000000 32.000000 32.000000 32.000000 32.000000
32.000000 32.000000 32.000000 32.000000 32.000000 32.000000 32.000000 32.000000
32.000000 32.000000 32.000000 32.000000 32.000000 32.000000 32.000000 32.000000
32.000000 32.000000 32.000000 32.000000 32.000000 32.000000 32.000000 32.000000
32.000000 32.000000 32.000000 32.000000 32.000000 32.000000 32.000000 32.000000
32.000000 32.000000 32.000000 32.000000 32.000000 32.000000 32.000000 32.000000
32.000000 32.000000 32.000000 32.000000 32.000000 32.000000 32.000000 32.000000
32.000000 32.000000 32.000000 32.000000 32.000000 32.000000 32.000000 32.000000
32.000000 32.000000 32.000000 32.000000 32.000000 32.000000 32.000000 32.000000
32.000000 32.000000 32.000000 32.000000 32.000000 32.000000 32.000000 32.000000
32.000000 32.000000 32.000000 32.000000 32.000000
32.377778 32.408034 32.438295 32.468565 32.498849 32.529150 32.559473 32.589823
32.620202 32.650614 32.681062 32.711550 32.742079 32.772653 32.803271 32.833936
32.864648 32.895408 32.926213 32.957064 32.987958 33.018894 33.049867 33.080875
33.111910 33.142971 33.174047 33.205135 33.236224 33.267308 33.298373 33.329413
33.360413 33.391364 33.422250 33.453059 33.483773 33.514380 33.544861 33.575201
33.605378 33.635379 33.665179 33.694763 33.724106 33.753191 33.781994 33.810496
33.838671 33.866502 33.893962 33.921033 33.947688 33.973910 33.999673 34.024958
34.049741 34.074005 34.097725 34.120886 34.143464 34.165445 34.186807 34.207536
34.227614 34.247027 34.265759 34.283797 34.301128 34.317741 34.333622 34.348764
34.363156 34.376790 34.389656 34.401750 34.413064 34.423592 34.433330 34.442272
34.450415 34.457756 34.464292 34.470019 34.474937 34.479043 34.482335 34.484814
34.486478 34.487326 34.487359 34.486577 34.484980 34.482569 34.479344 34.475307
34.470460 34.464804 34.458342 34.451076 34.443010 34.434147 34.424492 34.414049
34.402823 34.390821 34.378049 34.364513 34.350224 34.335188 34.319418 34.302920
34.285710 34.267796 34.249195 34.229918 34.209982 34.189399 34.168191 34.146370
34.123958 34.100970 34.077429 34.053353 34.028764 34.003680 33.978127 33.952122
33.925692 33.898855 33.871637 33.844057 33.816141 33.787907 33.759382 33.730584
33.701537 33.672260 33.642776 33.613101 33.583259 33.553266 33.523142 33.492902
33.462565 33.432145 33.401659 33.371118 33.340539 33.309932 33.279310 33.248681
33.218058 33.187447 33.156859 33.126299 33.095774 33.065289 33.034850 33.004459
32.974122 32.943838 32.913611 32.883441 32.853329 32.823275 32.793278 32.763335
32.733448 32.703611 32.673823 32.644080 32.614380 32.584718 32.555090 32.525491
32.495918 32.466365 32.436827 32.407300 32.377778
32.755556 32.816071 32.876595 32.937138 32.997707 33.058312 33.118962 33.179663
33.240425 33.301252 33.362154 33.423132 33.484196 33.545347 33.606590 33.667924
33.729355 33.790878 33.852498 33.914206 33.976004 34.037882 34.099839 34.161862
34.223946 34.286075 34.348243 34.410429 34.472622 34.534800 34.596949 34.659041
34.721060 34.782975 34.844766 34.906398 34.967849 35.029079 35.090064 35.150760
35.211140 35.271158 35.330784 35.389970 35.448683 35.506873 35.564505 35.621528
35.677906 35.733587 35.788534 35.842695 35.896032 35.948495 36.000046 36.050634
36.100225 36.148770 36.196233 36.242570 36.287749 36.331724 36.374468 36.415940
36.456114 36.494952 36.532431 36.568518 36.603194 36.636428 36.668203 36.698494
36.727287 36.754560 36.780302 36.804495 36.827128 36.848189 36.867669 36.885557
36.901847 36.916531 36.929605 36.941061 36.950898 36.959111 36.965698 36.970655
36.973984 36.975681 36.975747 36.974182 36.970987 36.966164 36.959713 36.951638
36.941942 36.930628 36.917701 36.903168 36.887032 36.869303 36.849988 36.829097
36.806640 36.782630 36.757077 36.730001 36.701412 36.671334 36.639780 36.606777
36.572342 36.536505 36.499286 36.460720 36.420829 36.379652 36.337215 36.293558
36.248712 36.202721 36.155617 36.107446 36.058243 36.008058 35.956926 35.904898
35.852011 35.798318 35.743855 35.688675 35.632816 35.576330 35.519253 35.461638
35.403518 35.344944 35.285950 35.226584 35.166876 35.106872 35.046601 34.986105
34.925410 34.864555 34.803562 34.742468 34.681291 34.620063 34.558801 34.497533
34.436272 34.375041 34.313850 34.252721 34.191659 34.130682 34.069793 34.009005
33.948319 33.887746 33.827284 33.766939 33.706708 33.646596 33.586595 33.526708
33.466926 33.407250 33.347670 33.288182 33.228778 33.169451 33.110192 33.050993
32.991844 32.932736 32.873659 32.814602 32.755556
33.133333 33.224112 33.314904 33.405725 33.496585 33.587500 33.678481 33.769541
33.860690 33.951941 34.043300 34.134781 34.226385 34.318124 34.409999 34.502017
34.594175 34.686479 34.778922 34.871506 34.964219 35.057062 35.150016 35.243079
35.336227 35.429453 35.522729 35.616042 35.709360 35.802666 35.895920 35.989102
36.082165 36.175084 36.267809 36.360307 36.452524 36.544423 36.635943 36.727044
36.817661 36.907748 36.997235 37.086075 37.174195 37.261543 37.348042 37.433641
37.518260 37.601845 37.684318 37.765622 37.845679 37.924435 38.001811 38.077753
38.152187 38.225060 38.296301 38.365859 38.433668 38.499681 38.563834 38.626087
38.686381 38.744678 38.800926 38.855092 38.907130 38.957012 39.004696 39.050159
39.093366 39.134298 39.172924 39.209231 39.243192 39.274797 39.304025 39.330868
39.355310 39.377344 39.396959 39.414150 39.428908 39.441231 39.451113 39.458552
39.463545 39.466091 39.466190 39.463842 39.459049 39.451811 39.442133 39.430017
39.415469 39.398493 39.379098 39.357289 39.333079 39.306475 39.277493 39.246143
39.212446 39.176413 39.138070 39.097434 39.054533 39.009389 38.962038 38.912502
38.860824 38.807033 38.751176 38.693286 38.633416 38.571606 38.507912 38.442378
38.375068 38.306028 38.235326 38.163014 38.089162 38.013824 37.937077 37.858973
37.779591 37.698988 37.617242 37.534409 37.450568 37.365775 37.280108 37.193622
37.106392 37.018470 36.929930 36.840821 36.751213 36.661151 36.570700 36.479903
36.388819 36.297486 36.205960 36.114271 36.022472 35.930587 35.838664 35.746722
35.654802 35.562920 35.471110 35.379384 35.287770 35.196276 35.104923 35.013716
34.922672 34.831791 34.741084 34.650548 34.560190 34.470005 34.379994 34.290149
34.200469 34.110943 34.021566 33.932325 33.843212 33.754214 33.665320 33.576515
33.487787 33.399119 33.310498 33.221908 33.133333
33.511111 33.632160 33.753228 33.874332 33.995492 34.116723 34.238045 34.359471
34.481019 34.602701 34.724533 34.846522 34.968685 35.091022 35.213548 35.336261
35.459170 35.582267 35.705561 35.829036 35.952695 36.076520 36.200507 36.324629
36.448881 36.573227 36.697656 36.822125 36.946617 37.071082 37.195495 37.319800
37.443966 37.567928 37.691648 37.815056 37.938106 38.060720 38.182847 38.304403
38.425329 38.545537 38.664964 38.783513 38.901119 39.017681 39.133130 39.247361
39.360303 39.471851 39.581930 39.690435 39.797292 39.902397 40.005675 40.107026
40.206377 40.303630 40.398717 40.491545 40.582050 40.670143 40.755766 40.838839
40.919307 40.997098 41.072164 41.144439 41.213882 41.280436 41.344066 41.404721
41.462373 41.516979 41.568517 41.616949 41.662260 41.704418 41.743412 41.779216
41.811822 41.841211 41.867377 41.890305 41.909991 41.926426 41.939607 41.949529
41.956188 41.959584 41.959716 41.956585 41.950191 41.940538 41.927628 41.911468
41.892062 41.869419 41.843547 41.814458 41.782160 41.746674 41.708009 41.666190
41.621231 41.573163 41.522004 41.467791 41.410547 41.350318 41.287131 41.221038
41.152074 41.080300 41.005755 40.928507 40.848604 40.766120 40.681110 40.593655
40.503815 40.411678 40.317310 40.220803 40.122229 40.021685 39.919244 39.815008
39.709052 39.601481 39.492370 39.381825 39.269921 39.156764 39.042426 38.927012
38.810592 38.693267 38.575105 38.456201 38.336618 38.216447 38.095746 37.974601
37.853062 37.731209 37.609085 37.486764 37.364284 37.241708 37.119069 36.996423
36.873795 36.751235 36.628761 36.506415 36.384209 36.262177 36.140326 36.018683
35.897249 35.776045 35.655066 35.534327 35.413819 35.293550 35.173510 35.053699
34.934103 34.814720 34.695531 34.576531 34.457699 34.339024 34.220485 34.102069
33.983752 33.865520 33.747348 33.629219 33.511111
33.888889 34.040218 34.191569 34.342968 34.494435 34.645995 34.797666 34.949473
35.101429 35.253559 35.405874 35.558393 35.711124 35.864085 36.017275 36.170711
36.324386 36.478311 36.632473 36.786878 36.941505 37.096355 37.251400 37.406633
37.562017 37.717540 37.873155 38.028842 38.184546 38.340239 38.495855 38.651359
38.806676 38.961762 39.116532 39.270935 39.424878 39.578299 39.731097 39.883204
40.034510 40.184940 40.334377 40.482741 40.629908 40.775792 40.920265 41.063238
41.204581 41.344200 41.481963 41.617777 41.751510 41.883069 42.012324 42.139184
42.263523 42.385253 42.504254 42.620442 42.733703 42.843961 42.951110 43.055078
43.155771 43.253123 43.347050 43.437494 43.524379 43.607658 43.687263 43.763155
43.835277 43.903595 43.968062 44.028653 44.085326 44.138063 44.186832 44.231618
44.272395 44.309154 44.341875 44.370552 44.395169 44.415723 44.432206 44.444613
44.452940 44.457187 44.457352 44.453435 44.445439 44.433366 44.417223 44.397012
44.372744 44.344425 44.312069 44.275685 44.235293 44.190904 44.142545 44.090232
44.033997 43.973862 43.909868 43.842040 43.770429 43.695068 43.616016 43.533313
43.447028 43.357208 43.263933 43.167259 43.067273 42.964040 42.857657 42.748197
42.635766 42.520442 42.402339 42.281543 42.158174 42.032322 41.904114 41.773641
41.641034 41.506388 41.369834 41.231469 41.091424 40.949793 40.806708 40.662259
40.516574 40.369741 40.221884 40.073083 39.923457 39.773081 39.622067 39.470481
39.318428 39.165967 39.013193 38.860158 38.706948 38.553605 38.400207 38.246788
38.093415 37.940115 37.786943 37.633921 37.481094 37.328474 37.176100 37.023976
36.872132 36.720565 36.569298 36.418321 36.267649 36.117268 35.967186 35.817384
35.667863 35.518601 35.369594 35.220816 35.072256 34.923890 34.775700 34.627660
34.479750 34.331943 34.184215 34.036538 33.888889
34.266667 34.448286 34.629934 34.811637 34.993426 35.175324 35.357361 35.539558
35.721943 35.904532 36.087353 36.270415 36.453743 36.637341 36.821230 37.005406
37.189885 37.374658 37.559733 37.745092 37.930739 38.116644 38.302805 38.489182
38.675765 38.862504 39.049379 39.236329 39.423327 39.610298 39.797206 39.983967
40.170532 40.356807 40.542732 40.728202 40.913148 41.097454 41.281041 41.463783
41.645592 41.826333 42.005910 42.184181 42.361041 42.536343 42.709977 42.881790
43.051669 43.219457 43.385040 43.548260 43.709003 43.867112 44.022473 44.174934
44.324385 44.470678 44.613709 44.753337 44.889465 45.021961 45.150735 45.275666
45.396673 45.513646 45.626512 45.735175 45.839573 45.939618 46.035259 46.126422
46.213064 46.295122 46.372561 46.445329 46.513400 46.576731 46.635302 46.689080
46.738050 46.782186 46.821478 46.855907 46.885467 46.910143 46.929933 46.944828
46.954826 46.959924 46.960121 46.955418 46.945818 46.931323 46.911939 46.887674
46.858533 46.824531 46.785677 46.741990 46.693481 46.640179 46.582099 46.519276
46.451731 46.379509 46.302636 46.221167 46.135137 46.044611 45.949633 45.850278
45.746600 45.638686 45.526600 45.410441 45.290281 45.166233 45.038378 44.906839
44.771707 44.633115 44.491161 44.345988 44.197701 44.046450 43.892344 43.735539
43.576147 43.414328 43.250197 43.083913 42.915590 42.745389 42.573420 42.399841
42.224758 42.048325 41.870643 41.691858 41.512064 41.331401 41.149953 40.967850
40.785170 40.602031 40.418501 40.234689 40.050651 39.866485 39.682238 39.497995
39.313794 39.129709 38.945766 38.762028 38.578514 38.395274 38.212318 38.029686
37.847379 37.665427 37.483824 37.302591 37.121715 36.941207 36.761048 36.581243
36.401768 36.222618 36.043766 35.865203 35.686896 35.508830 35.330973 35.153302
34.975785 34.798395 34.621098 34.443867 34.266667
34.644444 34.856367 35.068323 35.280347 35.492468 35.704723 35.917137 36.129746
36.342571 36.555646 36.768986 36.982622 37.196562 37.410834 37.625439 37.840399
38.055705 38.271375 38.487391 38.703762 38.920459 39.137485 39.354799 39.572395
39.790220 40.008258 40.226443 40.444749 40.663098 40.881451 41.099717 41.317846
41.535734 41.753317 41.970479 42.187146 42.403186 42.618514 42.832988 43.046510
43.258926 43.470130 43.679957 43.888291 44.094960 44.299840 44.502752 44.703568
44.902102 45.098223 45.291745 45.482533 45.670403 45.855219 46.036800 46.215014
46.389685 46.560687 46.727850 46.891055 47.050142 47.205002 47.355486 47.501493
47.642889 47.779584 47.911456 48.038428 48.160392 48.277282 48.389004 48.495505
48.596703 48.692554 48.782993 48.867985 48.947474 49.021435 49.089824 49.152622
49.209795 49.261329 49.307199 49.347396 49.381901 49.410710 49.433810 49.451198
49.462868 49.468818 49.469048 49.463557 49.452350 49.435428 49.412800 49.384470
49.350452 49.310752 49.265392 49.214380 49.157745 49.095502 49.027685 48.954315
48.875439 48.791083 48.701304 48.606138 48.505653 48.399895 48.288945 48.172860
48.051735 47.925636 47.794674 47.658927 47.518519 47.373541 47.224129 47.070385
46.912459 46.750462 46.584556 46.414861 46.241548 46.064744 45.884627 45.701331
45.515038 45.325884 45.134057 44.939689 44.742971 44.544035 44.343066 44.140194
43.935601 43.729409 43.521794 43.312871 43.102807 42.891708 42.679732 42.466973
42.253577 42.039630 41.825263 41.610551 41.395613 41.180511 40.965350 40.750180
40.535095 40.320131 40.105367 39.890830 39.676586 39.462651 39.249076 39.035869
38.823070 38.610674 38.398712 38.187172 37.976071 37.765392 37.555142 37.345296
37.135853 36.926783 36.718077 36.509701 36.301638 36.093851 35.886317 35.678998
35.471865 35.264878 35.058004 34.851205 34.644444
35.022222 35.264463 35.506743 35.749099 35.991572 36.234195 36.477010 36.720044
36.963337 37.206910 37.450802 37.695028 37.939620 38.184585 38.429952 38.675718
38.921905 39.168500 39.415518 39.662933 39.910753 40.158939 40.407488 40.656348
40.905507 41.154898 41.404497 41.654222 41.904035 42.153842 42.403590 42.653169
42.902514 43.151497 43.400042 43.648006 43.895296 44.141757 44.387282 44.631703
44.874900 45.116692 45.356950 45.595480 45.832144 46.066739 46.299119 46.529077
46.756459 46.981053 47.202705 47.421200 47.636383 47.848043 48.056026 48.260125
48.460190 48.656024 48.847483 49.034380 49.216580 49.393908 49.566242 49.733419
49.895331 50.051829 50.202819 50.348170 50.487798 50.621590 50.749478 50.871361
50.987186 51.096869 51.200365 51.297608 51.388562 51.473173 51.551416 51.623248
51.688651 51.747593 51.800061 51.846031 51.885497 51.918441 51.944860 51.964743
51.978088 51.984892 51.985154 51.978874 51.966056 51.946704 51.920823 51.888425
51.849514 51.804111 51.752224 51.693878 51.629088 51.557888 51.480297 51.396361
51.306106 51.209589 51.106845 50.997945 50.882934 50.761898 50.634892 50.502019
50.363347 50.218995 50.069044 49.913628 49.752845 49.586843 49.415733 49.239680
49.058805 48.873290 48.683266 48.488925 48.290411 48.087924 47.881614 47.671691
47.458309 47.241681 47.021965 46.799376 46.574069 46.346259 46.116099 45.883799
45.649507 45.413426 45.175695 44.936511 44.696001 44.454350 44.211677 43.968154
43.723885 43.479030 43.233679 42.987978 42.742003 42.495884 42.249684 42.003517
41.757433 41.511528 41.265840 41.020451 40.775385 40.530709 40.286434 40.042614
39.799250 39.556380 39.313995 39.072122 38.830743 38.589872 38.349483 38.109579
37.870129 37.631126 37.392532 37.154333 36.916486 36.678968 36.441736 36.204759
35.967991 35.731398 35.494933 35.258556 35.022222
35.400000 35.672574 35.945193 36.217901 36.490739 36.763755 37.036983 37.310469
37.584244 37.858350 38.132811 38.407666 38.682928 38.958634 39.234786 39.511415
39.788511 40.066096 40.344150 40.622685 40.901668 41.181100 41.460932 41.741156
42.021705 42.302560 42.583638 42.864904 43.146259 43.427655 43.708973 43.990149
44.271050 44.551595 44.831633 45.111066 45.389727 45.667505 45.944213 46.219727
46.493846 46.766430 47.037267 47.306204 47.573017 47.837544 48.099552 48.358871
48.615261 48.868549 49.118492 49.364912 49.607569 49.846286 50.080824 50.311013
50.536620 50.757481 50.973374 51.184145 51.389585 51.589549 51.783847 51.972347
52.154874 52.331313 52.501507 52.665355 52.822721 52.973518 53.117629 53.254984
53.385482 53.509068 53.625658 53.735209 53.837654 53.932961 54.021077 54.101978
54.175624 54.242000 54.301074 54.352837 54.397267 54.434359 54.464099 54.486484
54.501506 54.509164 54.509458 54.502387 54.487956 54.466167 54.437030 54.400550
54.356743 54.305616 54.247194 54.181487 54.108529 54.028336 53.940953 53.846403
53.744743 53.636006 53.520262 53.397555 53.267971 53.131568 52.988448 52.838682
52.682393 52.519665 52.350639 52.175417 51.994158 51.806979 51.614058 51.415526
51.211578 51.002360 50.788081 50.568899 50.345036 50.116660 49.884004 49.647240
49.406610 49.162290 48.914525 48.663491 48.409435 48.152532 47.893022 47.631077
47.366932 47.100749 46.832756 46.563104 46.292009 46.019611 45.746112 45.471638
45.196377 44.920440 44.643997 44.367144 44.090035 43.812750 43.535425 43.258124
42.980965 42.703996 42.427319 42.150966 41.875022 41.599506 41.324485 41.049965
40.775997 40.502575 40.229737 39.957464 39.685781 39.414660 39.144112 38.874103
38.604630 38.335652 38.067158 37.799101 37.531459 37.264183 36.997242 36.730585
36.464174 36.197956 35.931888 35.665919 35.400000
35.777778 36.080702 36.383678 36.686753 36.989979 37.293400 37.597069 37.901023
38.205312 38.509968 38.815037 39.120540 39.426522 39.732991 40.039986 40.347504
40.655576 40.964185 41.273353 41.583050 41.893285 42.204013 42.515231 42.826876
43.138933 43.451321 43.764008 44.076896 44.389937 44.703013 45.016060 45.328940
45.641570 45.953794 46.265511 46.576545 46.886778 47.196015 47.504120 47.810880
48.116146 48.419686 48.721337 49.020853 49.318058 49.612695 49.904578 50.193441
50.479090 50.761255 51.039738 51.314266 51.584640 51.850592 52.111924 52.368373
52.619749 52.865799 53.106341 53.341135 53.570013 53.792751 54.009194 54.219138
54.422444 54.618928 54.808470 54.990905 55.166132 55.334008 55.494449 55.647333
55.792592 55.930126 56.059881 56.181775 56.295769 56.401796 56.499828 56.589815
56.671737 56.745556 56.811260 56.868822 56.918233 56.959476 56.992547 57.017434
57.034137 57.042651 57.042975 57.035113 57.019064 56.994836 56.962433 56.921868
56.873146 56.816290 56.751307 56.678229 56.597069 56.507868 56.410646 56.305459
56.192336 56.071344 55.942527 55.805968 55.661722 55.509894 55.350552 55.183821
55.009788 54.828596 54.640351 54.445218 54.243319 54.034842 53.819927 53.598781
53.371559 53.138488 52.899739 52.655555 52.406116 52.151680 51.892439 51.628657
51.360533 51.088339 50.812274 50.532615 50.249559 49.963380 49.674272 49.382504
49.088262 48.791807 48.493315 48.193034 47.891127 47.587829 47.283289 46.977724
46.671268 46.364120 46.056395 45.748275 45.439857 45.131303 44.822691 44.514165
44.205786 43.897674 43.589876 43.282493 42.975554 42.669141 42.363269 42.058001
41.753338 41.449327 41.145954 40.843252 40.541196 40.239802 39.939036 39.638901
39.339356 39.040389 38.741953 38.444026 38.146556 37.849511 37.552834 37.256487
36.960410 36.664557 36.368870 36.073296 35.777778
36.155556 36.488849 36.822197 37.155660 37.489289 37.823143 38.157267 38.491720
38.826541 39.161785 39.497480 39.833680 40.170402 40.507692 40.845556 41.184032
41.523112 41.862825 42.203148 42.544098 42.885635 43.227764 43.570427 43.913614
44.257248 44.601304 44.945684 45.290345 45.635168 45.980093 46.324978 46.669744
47.014228 47.358331 47.701866 48.044717 48.386674 48.727601 49.067269 49.405521
49.742111 50.076864 50.409517 50.739879 51.067673 51.392694 51.714655 52.033340
52.348454 52.659776 52.967004 53.269917 53.568213 53.861670 54.149992 54.432963
54.710295 54.981781 55.247146 55.506196 55.758672 56.004395 56.243128 56.474707
56.698919 56.915619 57.124616 57.325787 57.518965 57.704047 57.880890 58.049410
58.209487 58.361056 58.504018 58.638324 58.763896 58.880697 58.988667 59.087780
59.177991 59.259284 59.331626 59.395006 59.449402 59.494809 59.531212 59.558610
59.576995 59.586365 59.586721 59.578063 59.560396 59.533720 59.498049 59.453384
59.399744 59.337136 59.265586 59.185105 59.095729 58.997477 58.890398 58.774517
58.649901 58.516584 58.374651 58.224152 58.065188 57.897827 57.722191 57.538367
57.346500 57.146695 56.939122 56.723906 56.501242 56.271274 56.034221 55.790247
55.539591 55.282437 55.019043 54.749607 54.474406 54.193648 53.907625 53.616554
53.320734 53.020387 52.715819 52.407252 52.094991 51.779257 51.460349 51.138482
50.813949 50.486953 50.157775 49.826605 49.493711 49.159266 48.823521 48.486632
48.148830 47.810253 47.471110 47.131520 46.791672 46.451662 46.111658 45.771737
45.432044 45.092636 44.753637 44.415086 44.077083 43.739652 43.402872 43.066749
42.731345 42.396650 42.062706 41.729493 41.397034 41.065297 40.734291 40.403972
40.074336 39.745331 39.416939 39.089103 38.761792 38.434945 38.108523 37.782459
37.456706 37.131198 36.805880 36.480686 36.155556
36.533333 36.897012 37.260754 37.624621 37.988677 38.352977 38.717588 39.082556
39.447945 39.813794 40.180163 40.547080 40.914598 41.282734 41.651534 42.020999
42.391167 42.762023 43.133593 43.505843 43.878790 44.252378 44.626609 45.001408
45.376759 45.752566 46.128795 46.505326 46.882105 47.258991 47.635908 48.012689
48.389238 48.765363 49.140947 49.515773 49.889702 50.262494 50.633988 51.003922
51.372114 51.738284 52.102229 52.463652 52.822334 53.177963 53.530307 53.879044
54.223932 54.564641 54.900924 55.232450 55.558971 55.880157 56.195765 56.505472
56.809042 57.106167 57.396621 57.680113 57.956433 58.225311 58.486557 58.739922
58.985238 59.222283 59.450911 59.670926 59.882206 60.084582 60.277953 60.462178
60.637177 60.802834 60.959087 61.105843 61.243059 61.370660 61.488616 61.596872
61.695409 61.784185 61.863189 61.932393 61.991791 62.041364 62.081111 62.111019
62.131089 62.141317 62.141703 62.132250 62.112957 62.083834 62.044882 61.996116
61.937539 61.869175 61.791030 61.703136 61.605508 61.498188 61.381199 61.254600
61.118423 60.972744 60.817610 60.653118 60.479330 60.296367 60.104309 59.903303
59.693451 59.474924 59.247848 59.012420 58.768790 58.517182 58.257766 57.990795
57.716459 57.435034 57.146729 56.851840 56.550593 56.243300 55.930199 55.611615
55.287793 54.959067 54.625684 54.287981 53.946204 53.600687 53.251672 52.899485
52.544358 52.186608 51.826452 51.464193 51.100031 50.734252 50.367036 49.998649
49.629253 49.259089 48.888296 48.517095 48.145602 47.774011 47.402419 47.030993
46.659809 46.289011 45.918652 45.548852 45.179645 44.811127 44.443315 44.076282
43.710027 43.344603 42.979994 42.616234 42.253292 41.891184 41.529868 41.169345
40.809561 40.450501 40.092106 39.734347 39.377158 39.020499 38.664300 38.308510
37.953058 37.597884 37.242917 36.888090 36.533333
36.911111 37.305194 37.699345 38.093638 38.488136 38.882912 39.278022 39.673541
40.069515 40.466013 40.863074 41.260761 41.659099 42.058146 42.457911 42.858443
43.259736 43.661825 44.064688 44.468347 44.872759 45.277931 45.683798 46.090350
46.497500 46.905219 47.313393 47.721974 48.130823 48.539870 48.948948 49.357964
49.766725 50.175115 50.582912 50.989976 51.396059 51.800996 52.204516 52.606429
53.006440 53.404338 53.799806 54.192614 54.582426 54.968996 55.351975 55.731102
56.106019 56.476456 56.842049 57.202527 57.557524 57.906770 58.249906 58.586667
58.916707 59.239772 59.555530 59.863745 60.164107 60.456397 60.740331 61.015713
61.282287 61.539882 61.788270 62.027306 62.256794 62.476613 62.686598 62.886652
63.076637 63.256481 63.426072 63.585357 63.734248 63.872709 64.000672 64.118115
64.224988 64.321279 64.406951 64.482000 64.546402 64.600154 64.643243 64.675669
64.697425 64.708511 64.708928 64.698675 64.677759 64.646179 64.603947 64.551064
64.487548 64.413404 64.328659 64.233320 64.127427 64.010994 63.884076 63.746696
63.598927 63.440805 63.272424 63.093837 62.905161 62.706471 62.497907 62.279568
62.051624 61.814198 61.567488 61.311643 61.046894 60.773412 60.491459 60.201233
59.903020 59.597041 59.283610 58.962965 58.635442 58.301294 57.960873 57.614445
57.262372 56.904926 56.542475 56.175292 55.803746 55.428105 55.048734 54.665891
54.279931 53.891101 53.499739 53.106076 52.710432 52.313018 51.914134 51.513968
51.112795 50.710781 50.308176 49.905120 49.501837 49.098442 48.695133 48.292002
47.889216 47.486845 47.085031 46.683820 46.283329 45.883582 45.484672 45.086603
44.689444 44.293183 43.897866 43.503465 43.110007 42.717449 42.325799 41.935003
41.545052 41.155883 40.767471 40.379745 39.992666 39.606159 39.220174 38.834631
38.449470 38.064610 37.679982 37.295508 36.911111
37.288889 37.713392 38.137973 38.562706 38.987671 39.412935 39.838580 40.264662
40.691261 41.118426 41.546229 41.974707 42.403928 42.833911 43.264717 43.696349
44.128855 44.562221 44.996482 45.431603 45.867603 46.304424 46.742068 47.180454
47.619564 48.059290 48.499592 48.940336 49.381459 49.822797 50.264264 50.705665
51.146889 51.587712 52.027994 52.467485 52.906016 53.343309 53.779168 54.213288
54.645450 55.075320 55.502659 55.927110 56.348413 56.766195 57.180177 57.589972
57.995291 58.395737 58.791013 59.180721 59.564561 59.942139 60.313160 60.677237
61.034086 61.383337 61.724719 62.057884 62.382581 62.698488 63.005377 63.302956
63.591024 63.869322 64.137676 64.395860 64.643731 64.881096 65.107839 65.323800
65.528890 65.722979 65.906001 66.077853 66.238491 66.387836 66.525860 66.652503
66.767751 66.871562 66.963928 67.044823 67.114244 67.172175 67.218616 67.253558
67.277003 67.288947 67.289393 67.278343 67.255796 67.221761 67.176237 67.119238
67.050766 66.970841 66.879467 66.776677 66.662480 66.536921 66.400018 66.251833
66.092398 65.921795 65.740071 65.547333 65.343649 65.129153 64.903936 64.668163
64.421950 64.165497 63.898947 63.622531 63.336424 63.040891 62.736132 62.422446
62.100061 61.769303 61.430425 61.083779 60.729638 60.368374 60.000276 59.625732
59.245039 58.858595 58.466702 58.069761 57.668071 57.262031 56.851932 56.438165
56.021009 55.600842 55.177923 54.752614 54.325154 53.895881 53.465012 53.032859
52.599614 52.165563 51.730870 51.295792 50.860467 50.425121 49.989867 49.554900
49.120306 48.686253 48.252799 47.820085 47.388146 46.957092 46.526940 46.097772
45.669584 45.242436 44.816303 44.391224 43.967157 43.544120 43.122059 42.700970
42.280788 41.861494 41.443012 41.025308 40.608298 40.191935 39.776132 39.360827
38.945932 38.531377 38.117072 37.702938 37.288889
37.666667 38.121608 38.576632 39.031828 39.487272 39.943054 40.399243 40.855927
41.313165 41.771042 42.229605 42.688933 43.149057 43.610049 44.071925 44.534743
44.998502 45.463247 45.928955 46.395658 46.863307 47.331917 47.801416 48.271796
48.742958 49.214874 49.687415 50.160528 50.634055 51.107916 51.581921 52.055964
52.529822 53.003358 53.476321 53.948543 54.419739 54.889713 55.358151 55.824827
56.289396 56.751609 57.211092 57.667573 58.120656 58.570046 59.015331 59.456199
59.892225 60.323087 60.748353 61.167695 61.580682 61.986987 62.386186 62.777959
63.161896 63.537692 63.904958 64.263406 64.612674 64.952501 65.282555 65.602602
65.912346 66.211584 66.500056 66.777592 67.043968 67.299049 67.542646 67.774653
67.994917 68.203360 68.399861 68.584365 68.756781 68.917073 69.065172 69.201061
69.324690 69.436051 69.535112 69.621873 69.696311 69.758431 69.808221 69.845685
69.870817 69.883620 69.884096 69.872243 69.848068 69.811570 69.762758 69.701630
69.628203 69.542476 69.444474 69.334200 69.211692 69.076959 68.930055 68.771001
68.599869 68.416698 68.221583 68.014582 67.795820 67.565378 67.323413 67.070033
66.805431 66.529745 66.243204 65.945978 65.638334 65.320474 64.992701 64.655250
64.308457 63.952585 63.588001 63.214994 62.833957 62.445197 62.049129 61.646072
61.236457 60.820611 60.398969 59.971861 59.539722 59.102876 58.661752 58.216662
57.768023 57.316131 56.861384 56.404056 55.944525 55.483040 55.019951 54.555481
54.089951 53.623555 53.156583 52.689200 52.221664 51.754109 51.286761 50.819725
50.353196 49.887251 49.422051 48.957646 48.494170 48.031647 47.570179 47.109771
46.650496 46.192337 45.735344 45.279480 44.824772 44.371167 43.918669 43.467213
43.016784 42.567305 42.118742 41.671011 41.224062 40.777805 40.332177 39.887082
39.442448 38.998177 38.554186 38.110379 37.666667
38.044444 38.529837 39.015323 39.500992 39.986941 40.473250 40.960016 41.447313
41.935232 42.423836 42.913212 43.403407 43.894502 44.386527 44.879554 45.373592
45.868701 46.364869 46.862141 47.360482 47.859918 48.360388 48.861899 49.364361
49.867758 50.371971 50.876957 51.382566 51.888729 52.395262 52.902065 53.408920
53.915698 54.422146 54.928101 55.433276 55.937476 56.440378 56.941757 57.441258
57.938622 58.433465 58.925502 59.414318 59.899604 60.380925 60.857947 61.330220
61.797395 62.259008 62.714705 63.164016 63.606583 64.041942 64.469739 64.889521
65.300948 65.703584 66.097107 66.481110 66.855294 67.219284 67.572812 67.915539
68.247231 68.567589 68.876413 69.173447 69.458527 69.731438 69.992050 70.240188
70.475755 70.698612 70.908691 71.105885 71.290151 71.461410 71.619639 71.764780