# vtk DataFile Version 3.0
Steady-state temperature (Jacobi)
ASCII
DATASET STRUCTURED_POINTS
DIMENSIONS 181 181 1
ORIGIN 0.0 0.0 0.0
SPACING 0.05 0.05 1.0
POINT_DATA 32761
SCALARS Temperature float 1
LOOKUP_TABLE default
32.000000 32.000000 32.000000 32.000000 32.000000 32.000000 32.000000 32.000000
32.000000 32.000000 32.000000 32.000000 32.000000 32.000000 32.000000 32.000000
32.000000 32.000000 32.000000 32.000000 32.000000 32.000000 32.000000 32.000000
32.000000 32.000000 32.000000 32.000000 32.000000 32.000000 32.000000 32.000000
32.000000 32.000000 32.000000 32.000000 32.000000 32.000000 32.000000 32.000000
32.000000 32.000000 32.000000 32.000000 32.000000 32.000000 32.000000 32.000000
32.000000 32.000000 32.000000 32.000000 32.000000 32.000000 32.000000 32.000000
32.000000 32.000000 32.000000 32.000000 32.000000 32.000000 32.000000 32.000000
32.000000 32.000000 32.000000 32.000000 32.000000 32.000000 32.000000 32.000000
32.000000 32.000000 32.000000 32.000000 32.000000 32.000000 32.000000 32.000000
32.000000 32.000000 32.000000 32.000000 32.000000 32.000000 32.000000 32.000000
32.000000 32.000000 32.000000 32.000000 32.000000 32.000000 32.000000 32.000000
32.000000 32.000000 32.000000 32.000000 32.000000 32.000000 32.000000 32.000000
32.000000 32.000000 32.000000 32.000000 32.000000 32.000000 32.000000 32.000000
32.000000 32.000000 32.000000 32.000000 32.000000 32.000000 32.000000 32.000000
32.000000 32.000000 32.000000 32.000000 32.000000 32.000000 32.000000 32.000000
32.000000 32.000000 32.000000 32.000000 32.000000 32.000000 32.000000 32.000000
32.000000 32.000000 32.000000 32.000000 32.000000 32.000000 32.000000 32.000000
32.000000 32.000000 32.000000 32.000000 32.000000 32.000000 32.000000 32.000000
32.000000 32.000000 32.000000 32.000000 32.000000 32.000000 32.000000 32.000000
32.000000 32.000000 32.000000 32.000000 32.000000 32.000000 32.000000 32.000000
32.000000 32.000000 32.000000 32.000000 32.000000 32.000000 32.000000 32.000000
32.000000 32.000000 32.000000 32.000000 32.000000
32.377778 32.377824 32.377901 32.378047 32.378286 32.378661 32.379190 32.379922
32.380867 32.382078 32.383560 32.385367 32.387498 32.390013 32.392900 32.396222
32.399961 32.404183 32.408861 32.414063 32.419752 32.426001 32.432763 32.440112
32.447993 32.456480 32.465511 32.475159 32.485354 32.496170 32.507527 32.519498
32.531997 32.545096 32.558700 32.572880 32.587534 32.602733 32.618366 32.634504
32.651029 32.668009 32.685323 32.703037 32.721025 32.739350 32.757883 32.776686
32.795626 32.814765 32.833968 32.853295 32.872611 32.891973 32.911248 32.930493
32.949574 32.968549 32.987287 33.005843 33.024091 33.042085 33.059705 33.077003
33.093864 33.110339 33.126321 33.141858 33.156850 33.171345 33.185250 33.198610
33.211342 33.223486 33.234969 33.245829 33.255999 33.265516 33.274320 33.282445
33.289841 33.296535 33.302488 33.307721 33.312204 33.315954 33.318947 33.321197
33.322690 33.323431 33.323416 33.322645 33.321122 33.318841 33.315816 33.312034
33.307519 33.302252 33.296264 33.289534 33.282100 33.273936 33.265090 33.255531
33.245316 33.234409 33.222878 33.210681 33.197896 33.184479 33.170515 33.155958
33.140900 33.125295 33.109242 33.092693 33.075754 33.058375 33.040671 33.022589
33.004249 32.985599 32.966763 32.947687 32.928501 32.909149 32.889763 32.870286
32.850854 32.831408 32.812083 32.792819 32.773752 32.754821 32.736158 32.717701
32.699582 32.681735 32.664288 32.647175 32.630518 32.614251 32.598489 32.583164
32.568386 32.554086 32.540367 32.527157 32.514553 32.502483 32.491035 32.480137
32.469867 32.460154 32.451069 32.442540 32.434628 32.427263 32.420499 32.414263
32.408603 32.403449 32.398837 32.394699 32.391065 32.387869 32.385131 32.382789
32.380855 32.379268 32.378036 32.377099 32.376457 32.376057 32.375889 32.375904
32.376088 32.376395 32.376803 32.377273 32.377778
32.755556 32.755670 32.755852 32.756160 32.756672 32.757434 32.758534 32.760003
32.761941 32.764365 32.767382 32.770995 32.775319 32.780341 32.786184 32.792819
32.800375 32.808805 32.818245 32.828632 32.840104 32.852582 32.866208 32.880884
32.896755 32.913707 32.931885 32.951157 32.971671 32.993277 33.016121 33.040039
33.065174 33.091346 33.118697 33.147032 33.176490 33.206861 33.238283 33.270530
33.303740 33.337675 33.372467 33.407868 33.444009 33.480633 33.517867 33.555447
33.593497 33.631748 33.670323 33.708950 33.747747 33.786445 33.825159 33.863621
33.901944 33.939865 33.977495 34.014579 34.051224 34.087184 34.122565 34.157132
34.190987 34.223908 34.255996 34.287042 34.317142 34.346103 34.374019 34.400712
34.426270 34.450534 34.473584 34.495279 34.515694 34.534705 34.552379 34.568608
34.583454 34.596825 34.608773 34.619226 34.628223 34.635712 34.641722 34.646215
34.649211 34.650691 34.650661 34.649121 34.646064 34.641509 34.635437 34.627884
34.618821 34.608300 34.596283 34.582839 34.567918 34.551610 34.533855 34.514759
34.494254 34.472465 34.449316 34.424950 34.399284 34.372478 34.344443 34.315358
34.285127 34.253945 34.221715 34.188645 34.154634 34.119905 34.084356 34.048220
34.011392 33.974120 33.936294 33.898170 33.859638 33.820960 33.782025 33.743099
33.704068 33.665202 33.626384 33.587883 33.549580 33.511744 33.474250 33.437364
33.400958 33.365292 33.330234 33.296035 33.262561 33.230053 33.198373 33.167750
33.138045 33.109472 33.081889 33.055496 33.030151 33.006037 32.983010 32.961238
32.940576 32.921174 32.902888 32.885852 32.869921 32.855212 32.841583 32.829132
32.817719 32.807427 32.798117 32.789857 32.782512 32.776131 32.770586 32.765910
32.761979 32.758811 32.756290 32.754419 32.753086 32.752282 32.751904 32.751928
32.752259 32.752860 32.753647 32.754570 32.755556
33.133333 33.133566 33.133892 33.134424 33.135237 33.136460 33.138148 33.140443
33.143382 33.147120 33.151672 33.157206 33.163714 33.171375 33.180157 33.190251
33.201599 33.214400 33.228573 33.244322 33.261542 33.280442 33.300891 33.323103
33.346921 33.372561 33.399840 33.428976 33.459760 33.492410 33.526692 33.562823
33.600543 33.640069 33.681116 33.723898 33.768108 33.813956 33.861114 33.909787
33.959629 34.010841 34.063057 34.116477 34.170719 34.225976 34.281858 34.338551
34.395657 34.453359 34.511252 34.569514 34.627740 34.686104 34.744202 34.802205
34.859714 34.916897 34.973363 35.029278 35.084263 35.138479 35.191564 35.243674
35.294466 35.344092 35.392228 35.439022 35.484173 35.527822 35.569692 35.609920
35.648250 35.684813 35.719380 35.752070 35.782683 35.811327 35.837826 35.862278
35.884536 35.904681 35.922593 35.938340 35.951829 35.963111 35.972119 35.978889
35.983380 35.985609 35.985564 35.983244 35.978662 35.971800 35.962698 35.951320
35.937733 35.921884 35.903867 35.883614 35.861244 35.836674 35.810052 35.781280
35.750533 35.717702 35.682988 35.646271 35.607778 35.567381 35.525333 35.481497
35.436151 35.389152 35.340803 35.290953 35.239929 35.187575 35.134237 35.079758
35.024500 34.968302 34.911541 34.854055 34.796232 34.737906 34.679475 34.620769
34.562193 34.503572 34.445314 34.387239 34.329753 34.272675 34.216403 34.160752
34.106114 34.052297 33.999682 33.948073 33.897837 33.848771 33.801229 33.755002
33.710423 33.667281 33.625888 33.586031 33.547997 33.511570 33.477016 33.444116
33.413111 33.383781 33.356342 33.330575 33.306669 33.284408 33.263955 33.245095
33.227966 33.212359 33.198385 33.185839 33.174809 33.165097 33.156765 33.149622
33.143709 33.138842 33.135039 33.132128 33.130104 33.128806 33.128207 33.128161
33.128620 33.129450 33.130586 33.131909 33.133333
33.511111 33.511528 33.512082 33.512887 33.514104 33.515821 33.518218 33.521358
33.525440 33.530498 33.536748 33.544195 33.553071 33.563351 33.575281 33.588802
33.604174 33.621305 33.640464 33.661527 33.684772 33.710039 33.737612 33.767298
33.799386 33.833648 33.870374 33.909303 33.950726 33.994346 34.040457 34.088725
34.139442 34.192244 34.247419 34.304569 34.363980 34.425226 34.488585 34.553604
34.620557 34.688967 34.759099 34.830456 34.903298 34.977110 35.052144 35.127872
35.204541 35.281613 35.359328 35.437146 35.515300 35.593249 35.671223 35.748685
35.825859 35.902220 35.977987 36.052648 36.126419 36.198805 36.270017 36.339584
36.407713 36.473956 36.538514 36.600970 36.661517 36.719769 36.775911 36.829589
36.880979 36.929761 36.976101 37.019712 37.060746 37.098954 37.134472 37.167086
37.196915 37.223782 37.247787 37.268787 37.286863 37.301907 37.313979 37.323006
37.329023 37.331997 37.331937 37.328843 37.322704 37.313554 37.301357 37.286185
37.267978 37.246843 37.222699 37.195687 37.165707 37.132937 37.097255 37.058877
37.017663 36.973865 36.927330 36.878341 36.826735 36.772831 36.716452 36.657951
36.597144 36.534415 36.469572 36.403031 36.334592 36.264701 36.193151 36.120414
36.046280 35.971241 35.895082 35.818316 35.740724 35.662831 35.584414 35.506009
35.427388 35.349093 35.270889 35.193320 35.116145 35.039904 34.964350 34.890014
34.816644 34.744756 34.674093 34.605154 34.537675 34.472134 34.408261 34.346512
34.286608 34.228980 34.173344 34.120102 34.068966 34.020306 33.973832 33.929881
33.888162 33.848978 33.812037 33.777610 33.745404 33.715655 33.688076 33.662867
33.639744 33.618874 33.599980 33.583194 33.568248 33.555240 33.543911 33.534329
33.526244 33.519694 33.514443 33.510497 33.507634 33.505833 33.504888 33.504749
33.505229 33.506252 33.507648 33.509317 33.511111
33.888889 33.889589 33.890447 33.891650 33.893325 33.895685 33.898827 33.902987
33.908227 33.914807 33.922752 33.932345 33.943571 33.956731 33.971774 33.989015
34.008362 34.030145 34.054231 34.080961 34.110160 34.142178 34.176797 34.214373
34.254645 34.297975 34.344057 34.393255 34.445220 34.500318 34.558156 34.619097
34.682708 34.749349 34.818545 34.890652 34.965158 35.042412 35.121865 35.203861
35.287819 35.374073 35.462015 35.551971 35.643307 35.736342 35.830423 35.925860
36.021986 36.119103 36.216536 36.314579 36.412554 36.510749 36.608491 36.706059
36.802789 36.898957 36.993913 37.087926 37.180368 37.271503 37.360728 37.448302
37.533650 37.617027 37.697891 37.776488 37.852317 37.925613 37.995913 38.063444
38.127784 38.189147 38.247156 38.302006 38.353366 38.401415 38.445865 38.486875
38.524202 38.557982 38.588017 38.614419 38.637033 38.655946 38.671048 38.682396
38.689925 38.693662 38.693587 38.689699 38.682019 38.670517 38.655259 38.636187
38.613408 38.586838 38.556629 38.522668 38.485154 38.443948 38.399294 38.351031
38.299448 38.244364 38.186110 38.124490 38.059880 37.992066 37.921469 37.847863
37.771709 37.692771 37.611551 37.527802 37.442065 37.354087 37.264440 37.172867
37.079969 36.985483 36.890038 36.793364 36.696112 36.598005 36.499710 36.400945
36.302386 36.203746 36.105703 36.007965 35.911207 35.815128 35.720398 35.626708
35.534712 35.444093 35.355489 35.268573 35.183958 35.101311 35.021216 34.943332
34.868212 34.795508 34.725737 34.658546 34.594414 34.532983 34.474694 34.419183
34.366851 34.317334 34.270988 34.227451 34.187036 34.149382 34.114761 34.082816
34.053775 34.027287 34.003538 33.982188 33.963379 33.946781 33.932498 33.920211
33.909985 33.901515 33.894829 33.889640 33.885936 33.883452 33.882140 33.881755
33.882216 33.883301 33.884897 33.886808 33.888889
34.266667 34.267760 34.269060 34.270742 34.273045 34.276104 34.280191 34.285402
34.292036 34.300146 34.310058 34.321781 34.335664 34.351671 34.370171 34.391080
34.414785 34.441153 34.470587 34.502904 34.538517 34.577193 34.619356 34.664719
34.713713 34.765999 34.822013 34.881362 34.944484 35.010934 35.081151 35.154637
35.231827 35.312175 35.396112 35.483044 35.573393 35.666522 35.762846 35.861686
35.963447 36.067414 36.173982 36.282405 36.393067 36.505194 36.619162 36.734177
36.850603 36.967634 37.085624 37.203761 37.322389 37.440698 37.559024 37.676563
37.793647 37.909484 38.024400 38.137626 38.249480 38.359223 38.467165 38.572601
38.675834 38.776198 38.873990 38.968584 39.060268 39.148465 39.233450 39.314694
39.392461 39.466271 39.536371 39.602337 39.664393 39.722169 39.775869 39.825173
39.870261 39.910868 39.947145 39.978879 40.006191 40.028922 40.047160 40.060798
40.069890 40.074382 40.074292 40.069620 40.060346 40.046524 40.028099 40.005177
39.977668 39.945732 39.909247 39.868423 39.823110 39.773571 39.719627 39.661595
39.599270 39.533025 39.462630 39.388511 39.310422 39.228838 39.143497 39.054928
38.962853 38.867851 38.769632 38.668822 38.565122 38.459201 38.350752 38.240484
38.128083 38.014290 37.898787 37.782343 37.664633 37.546448 37.427456 37.308465
37.189136 37.070283 36.951561 36.833785 36.716600 36.600816 36.486070 36.373156
36.261703 36.152486 36.045123 35.940363 35.837813 35.738194 35.641100 35.547217
35.456131 35.368486 35.283860 35.202854 35.125039 35.050969 34.980210 34.913269
34.849707 34.789980 34.733650 34.681120 34.631956 34.586507 34.544342 34.505761
34.470337 34.438320 34.409293 34.383454 34.360397 34.340271 34.322684 34.307738
34.295057 34.284696 34.276298 34.269873 34.265087 34.261905 34.260017 34.259348
34.259614 34.260700 34.262351 34.264414 34.266667
34.644444 34.646078 34.647935 34.650279 34.653291 34.657270 34.662354 34.668877
34.676926 34.686869 34.698743 34.712942 34.729453 34.748696 34.770602 34.795613
34.823605 34.855039 34.889732 34.928161 34.970084 35.015992 35.065580 35.119350
35.176937 35.238846 35.304653 35.374866 35.448999 35.527561 35.610004 35.696836
35.787450 35.882348 35.980868 36.083503 36.189537 36.299456 36.412491 36.529118
36.648524 36.771173 36.896211 37.024089 37.153920 37.286143 37.419842 37.555444
37.692015 37.829970 37.968362 38.107595 38.246720 38.386131 38.524883 38.663362
38.800636 38.937084 39.071795 39.205140 39.336239 39.465454 39.591943 39.716061
39.837007 39.955129 40.069674 40.180980 40.288348 40.392104 40.491604 40.587160
40.678188 40.764983 40.847020 40.924575 40.997183 41.065097 41.127916 41.185863
41.238599 41.286317 41.328741 41.366028 41.397965 41.424671 41.445995 41.462018
41.472648 41.477926 41.477821 41.472333 41.461492 41.445254 41.423712 41.396783
41.364618 41.327095 41.284428 41.236457 41.183459 41.125239 41.062135 40.993923
40.921002 40.843120 40.760740 40.673586 40.582181 40.486229 40.386315 40.282124
40.174301 40.062518 39.947475 39.828832 39.707343 39.582658 39.455580 39.325750
39.194015 39.060008 38.924613 38.787457 38.649452 38.510219 38.370692 38.230484
38.090543 37.950474 37.811229 37.672404 37.534949 37.398449 37.263843 37.130704
36.999951 36.871146 36.745182 36.621609 36.501285 36.383748 36.269817 36.159019
36.052128 35.948660 35.849340 35.753675 35.662336 35.574824 35.491753 35.412619
35.337980 35.267326 35.201158 35.138965 35.081187 35.027319 34.977737 34.931941
34.890251 34.852173 34.817968 34.787154 34.759932 34.735837 34.715013 34.697012
34.681921 34.669315 34.659228 34.651257 34.645385 34.641236 34.638743 34.637560
34.637572 34.638467 34.640083 34.642143 34.644444
35.022222 35.024548 35.027153 35.030271 35.034227 35.039203 35.045564 35.053439
35.063232 35.075016 35.089228 35.105883 35.125449 35.147880 35.173670 35.202712
35.235522 35.271926 35.312463 35.356891 35.405764 35.458772 35.516482 35.578513
35.645442 35.716818 35.793221 35.874132 35.960132 36.050630 36.146208 36.246207
36.351202 36.460468 36.574573 36.692728 36.815492 36.942016 37.072845 37.207076
37.345243 37.486390 37.631039 37.778191 37.928352 38.080490 38.235093 38.391104
38.548997 38.707697 38.867664 39.027814 39.188597 39.348928 39.509248 39.668481
39.827060 39.983929 40.139511 40.292783 40.444158 40.592650 40.738667 40.881268
41.020852 41.156530 41.288693 41.416510 41.540360 41.659476 41.774221 41.883894
41.988843 42.088435 42.182996 42.271963 42.355638 42.433528 42.505906 42.572352
42.633102 42.687809 42.736672 42.779414 42.816195 42.846805 42.871361 42.889725
42.901966 42.908015 42.907896 42.901607 42.889124 42.870516 42.845711 42.814847
42.777806 42.734795 42.685653 42.630659 42.569609 42.502852 42.430148 42.351917
42.267886 42.178545 42.083593 41.983591 41.878211 41.768086 41.652867 41.533256
41.408886 41.280524 41.147792 41.011519 40.871314 40.728067 40.581375 40.432182
40.280078 40.126052 39.969687 39.812009 39.652595 39.492501 39.331295 39.170054
39.008338 38.847234 38.686291 38.526599 38.367695 38.210660 38.055019 37.901836
37.750621 37.602412 37.456705 37.314503 37.175287 37.040020 36.908167 36.780642
36.656900 36.537797 36.422778 36.312640 36.206818 36.106047 36.009753 35.918607
35.832030 35.750624 35.673809 35.602119 35.534974 35.472840 35.415141 35.362274
35.313670 35.269659 35.229683 35.194003 35.162078 35.134102 35.109554 35.088562
35.070627 35.055817 35.043655 35.034150 35.026856 35.021722 35.018334 35.016586
35.016100 35.016718 35.018098 35.020032 35.022222
35.400000 35.403211 35.406714 35.410850 35.415855 35.422120 35.429822 35.439396
35.450959 35.464985 35.481527 35.501095 35.523675 35.549809 35.579414 35.613060
35.650591 35.692603 35.738863 35.789988 35.845669 35.906539 35.972210 36.043326
36.119423 36.201151 36.287964 36.380519 36.478190 36.581633 36.690143 36.804373
36.923542 37.048293 37.177775 37.312619 37.451903 37.596245 37.744659 37.897749
38.054467 38.215403 38.379456 38.547198 38.717484 38.890870 39.066175 39.243937
39.422950 39.603738 39.785078 39.967479 40.149716 40.332283 40.513963 40.695239
40.874910 41.053451 41.229689 41.404091 41.575522 41.744440 41.909761 42.071932
42.229925 42.384180 42.533730 42.679005 42.819107 42.954452 43.084216 43.208797
43.327447 43.440545 43.547420 43.648426 43.742972 43.831380 43.913142 43.988543
44.057154 44.119223 44.174399 44.222886 44.264411 44.299131 44.326853 44.347681
44.361500 44.368361 44.368227 44.361097 44.347007 44.325904 44.297903 44.262898
44.221079 44.172291 44.116803 44.054411 43.985463 43.909712 43.827585 43.738794
43.643847 43.542422 43.435107 43.321548 43.202413 43.077324 42.947028 42.811125
42.670438 42.524551 42.374361 42.219438 42.060747 41.897847 41.731769 41.562062
41.389812 41.214561 41.037443 40.857992 40.677381 40.495137 40.312461 40.128871
39.945585 39.762110 39.579674 39.397769 39.217620 39.038706 38.862236 38.687673
38.516203 38.347273 38.182032 38.019911 37.862015 37.707760 37.558199 37.412730
37.272350 37.136441 37.005937 36.880206 36.760112 36.645016 36.535708 36.431539
36.333227 36.240118 36.152851 36.070774 35.994446 35.923218 35.857573 35.796866
35.741504 35.690853 35.645242 35.604052 35.567538 35.535099 35.506915 35.482409
35.461691 35.444209 35.430004 35.418555 35.409836 35.403361 35.399040 35.396425
35.395364 35.395451 35.396478 35.398082 35.400000
35.777778 35.782066 35.786709 35.792003 35.798357 35.806005 35.815406 35.826728
35.840479 35.856755 35.876107 35.898558 35.924696 35.954469 35.988499 36.026654
36.069585 36.117079 36.169811 36.227484 36.290791 36.359351 36.433872 36.513884
36.600107 36.691983 36.790235 36.894218 37.004657 37.120818 37.243423 37.371652
37.506221 37.646224 37.792366 37.943663 38.100805 38.262732 38.430118 38.601833
38.778533 38.959025 39.143946 39.332048 39.523949 39.718357 39.915868 40.115157
40.316802 40.519453 40.723672 40.928099 41.133280 41.337855 41.542359 41.745444
41.947635 42.147610 42.345883 42.541171 42.733980 42.923076 43.108955 43.290443
43.468027 43.640601 43.808641 43.971115 44.128488 44.279805 44.425517 44.564753
44.697943 44.824304 44.944239 45.057054 45.163123 45.261839 45.353541 45.437711
45.514646 45.583917 45.645775 45.699878 45.746425 45.785161 45.816232 45.839468
45.854955 45.862611 45.862462 45.854509 45.838720 45.815181 45.783800 45.744748
45.697876 45.643438 45.581234 45.511605 45.434296 45.349738 45.257630 45.158489
45.051976 44.938696 44.818272 44.691400 44.557672 44.417872 44.271570 44.119633
43.961611 43.798458 43.629707 43.456390 43.278031 43.095734 42.909013 42.719041
42.525323 42.329091 42.129840 41.928855 41.725621 41.521460 41.315850 41.110138
40.903791 40.698173 40.492736 40.288845 40.085939 39.885372 39.686566 39.490853
39.297637 39.108216 38.921976 38.740170 38.562163 38.389157 38.220497 38.057324
37.898965 37.746491 37.599213 37.458129 37.322536 37.193352 37.069863 36.952905
36.841757 36.737169 36.638418 36.546167 36.459692 36.379571 36.305085 36.236724
36.173778 36.116653 36.064651 36.018093 35.976302 35.939514 35.907075 35.879141
35.855085 35.834986 35.818247 35.804872 35.794300 35.786463 35.780841 35.777295
35.775348 35.774799 35.775216 35.776335 35.777778
36.155556 36.161160 36.167126 36.173876 36.181707 36.191099 36.202276 36.215774
36.231742 36.250764 36.272911 36.298811 36.328453 36.362504 36.400868 36.444245
36.492452 36.546217 36.605266 36.670353 36.741107 36.818301 36.901470 36.991401
37.087530 37.190653 37.300109 37.416696 37.539657 37.669788 37.806234 37.949786
38.099496 38.256141 38.418684 38.587889 38.762629 38.943652 39.129751 39.321654
39.518079 39.719733 39.925270 40.135371 40.348638 40.565729 40.785201 41.007690
41.231721 41.457911 41.684764 41.912880 42.140758 42.368981 42.596057 42.822557
43.047010 43.269976 43.490020 43.707693 43.921609 44.132311 44.338472 44.540627
44.737520 44.929677 45.115921 45.296766 45.471122 45.639487 45.800863 45.955730
46.103184 46.243680 46.376411 46.501805 46.619150 46.728839 46.830259 46.923759
47.008823 47.085754 47.154132 47.214206 47.265650 47.308655 47.342990 47.368784
47.385898 47.394397 47.394234 47.385408 47.367964 47.341837 47.307162 47.263810
47.212009 47.151569 47.082811 47.005486 46.920012 46.826086 46.724221 46.614066
46.496232 46.370327 46.237059 46.096000 45.947957 45.792470 45.630445 45.461398
45.286329 45.104737 44.917712 44.724738 44.526993 44.323949 44.116862 43.905198
43.690281 43.471570 43.250451 43.026374 42.800774 42.573091 42.344798 42.115325
41.886167 41.656740 41.428548 41.200995 40.975578 40.751683 40.530790 40.312263
40.097553 39.886002 39.679017 39.475918 39.278059 39.084738 38.897243 38.714850
38.538777 38.368280 38.204496 38.046664 37.895836 37.751237 37.613829 37.482825
37.359096 37.241849 37.131858 37.028328 36.931939 36.841896 36.758785 36.681818
36.611484 36.547009 36.488789 36.436065 36.389141 36.347282 36.310701 36.278691
36.251376 36.228082 36.208851 36.193042 36.180618 36.170980 36.164011 36.159160
36.156236 36.154737 36.154403 36.154784 36.155556
36.533333 36.540482 36.548063 36.556438 36.566105 36.577351 36.590735 36.606465
36.625154 36.646928 36.672451 36.701759 36.735563 36.773809 36.817246 36.865724
36.920028 36.979909 37.046182 37.118496 37.197687 37.283304 37.376198 37.475813
37.583011 37.697130 37.819037 37.947963 38.084777 38.228602 38.380301 38.538894
38.705233 38.878236 39.058740 39.245566 39.439533 39.639369 39.845869 40.057679
40.275570 40.498109 40.726043 40.957873 41.194318 41.433826 41.677091 41.922516
42.170774 42.420238 42.671560 42.923100 43.175490 43.427093 43.678525 43.928165
44.176616 44.422292 44.665784 44.905553 45.142182 45.374192 45.602158 45.824674
46.042309 46.253738 46.459519 46.658421 46.850989 47.036088 47.214248 47.384436
47.547161 47.701495 47.847917 47.985606 48.115009 48.235410 48.347214 48.449812
48.543559 48.627951 48.703291 48.769175 48.825846 48.873002 48.910821 48.939102
48.957952 48.967270 48.967093 48.957419 48.938211 48.909566 48.871379 48.823844
48.766786 48.700502 48.624750 48.539929 48.445736 48.342674 48.230385 48.109477
47.979542 47.841296 47.694289 47.539343 47.375974 47.205111 47.026243 46.840402
46.647056 46.447341 46.240707 46.028389 45.809824 45.586339 45.357363 45.124303
44.886584 44.645684 44.401019 44.154132 43.904429 43.653499 43.400741 43.147775
42.893988 42.641019 42.388238 42.137287 41.887518 41.640561 41.395746 41.154675
40.916655 40.683248 40.453735 40.229624 40.010171 39.796818 39.588797 39.387474
39.192056 39.003827 38.821971 38.647683 38.480128 38.320403 38.167660 38.022896
37.885251 37.755619 37.633136 37.518591 37.411117 37.311401 37.218580 37.133235
37.054513 36.982894 36.917539 36.858826 36.805938 36.759152 36.717679 36.681700
36.650457 36.624037 36.601720 36.583504 36.568710 36.557249 36.548490 36.542262
36.537986 36.535411 36.534017 36.533478 36.533333
36.911111 36.920084 36.929492 36.939844 36.951495 36.965023 36.980701 36.999168
37.020609 37.045722 37.074598 37.107986 37.145882 37.189080 37.237475 37.291901
37.352148 37.419083 37.492389 37.572961 37.660370 37.755532 37.857905 37.968420
38.086420 38.212843 38.346918 38.489584 38.639953 38.798963 38.965610 39.140820
39.323479 39.514499 39.712654 39.918837 40.131721 40.352174 40.578771 40.812354
41.051410 41.296753 41.546790 41.802306 42.061642 42.325553 42.592326 42.862690
43.134892 43.409635 43.685144 43.962098 44.238717 44.515660 44.791158 45.065855
45.338009 45.608253 45.874888 46.138538 46.397565 46.652584 46.902030 47.146514
47.384556 47.616757 47.841735 48.060082 48.270519 48.473624 48.668227 48.854888
49.032551 49.201749 49.361542 49.512432 49.653593 49.785486 49.907402 50.019754
50.121946 50.214335 50.296437 50.368547 50.430290 50.481894 50.523091 50.554036
50.574569 50.584766 50.584575 50.573993 50.553074 50.521737 50.480141 50.428129
50.365967 50.293426 50.210878 50.118026 50.015353 49.902499 49.780058 49.647616
49.505880 49.354388 49.193963 49.024102 48.845744 48.658352 48.462983 48.259075
48.047797 47.828568 47.602668 47.369503 47.130455 46.884922 46.634382 46.378226
46.118019 45.853143 45.585239 45.313683 45.040174 44.764080 44.487145 44.208726
43.930595 43.652094 43.375005 43.098653 42.824815 42.552793 42.284342 42.018739
41.757701 41.500477 41.248734 41.001690 40.760947 40.525694 40.297456 40.075394
39.860946 39.653246 39.453637 39.261230 39.077265 38.900833 38.733069 38.573049
38.421794 38.278372 38.143692 38.016816 37.898540 37.787926 37.685657 37.590803
37.503933 37.424129 37.351851 37.286200 37.227525 37.174954 37.128730 37.088012
37.052941 37.022711 36.997364 36.976138 36.958979 36.945175 36.934578 36.926530
36.920796 36.916778 36.914158 36.912401 36.911111
37.288889 37.299949 37.311523 37.324042 37.338096 37.354029 37.372501 37.393765
37.418545 37.446996 37.479902 37.517316 37.560072 37.608119 37.662336 37.722560
37.789710 37.863509 37.944909 38.033513 38.130299 38.234751 38.347863 38.468998
38.599160 38.737587 38.885290 39.041380 39.206865 39.380732 39.563981 39.755476
39.956202 40.164901 40.382541 40.607747 40.841460 41.082200 41.330877 41.585909
41.848177 42.116005 42.390242 42.669134 42.953495 43.241505 43.533946 43.828949
44.127264 44.426988 44.728845 45.030915 45.333900 45.635882 45.937544 46.236990
46.534888 46.829381 47.121129 47.408331 47.691638 47.969325 48.242036 48.508133
48.768256 49.020867 49.266598 49.504021 49.733758 49.954496 50.166843 50.369608
50.563377 50.747083 50.921282 51.085032 51.238852 51.381924 51.514721 51.636547
51.747819 51.847965 51.937336 52.015477 52.082671 52.138579 52.183407 52.216928
52.239269 52.250316 52.250111 52.238652 52.215896 52.181954 52.136698 52.080353
52.012709 51.934105 51.844255 51.743612 51.631823 51.509457 51.376098 51.232436
51.077999 50.913601 50.738723 50.554304 50.359787 50.156236 49.943065 49.721463
49.490821 49.252450 49.005727 48.752079 48.490872 48.223646 47.949758 47.670848
47.386269 47.097748 46.804635 46.508728 46.209372 45.908423 45.605214 45.301644
44.997031 44.693295 44.389738 44.088283 43.788207 43.491421 43.197174 42.907344
42.621152 42.340425 42.064353 41.794697 41.530615 41.273792 41.023350 40.780886
40.545491 40.318662 40.099461 39.889278 39.687152 39.494357 39.309911 39.134972
38.968542 38.811658 38.663313 38.524422 38.393974 38.272760 38.159774 38.055685
37.959496 37.871755 37.791483 37.719107 37.653673 37.595494 37.543643 37.498320
37.458637 37.424684 37.395615 37.371417 37.351291 37.335123 37.322171 37.312223
37.304598 37.298993 37.294792 37.291605 37.288889
37.666667 37.680133 37.694112 37.709200 37.725820 37.744647 37.766008 37.790649
37.818795 37.851261 37.888163 37.930374 37.977902 38.031669 38.091567 38.158564
38.232432 38.314175 38.403440 38.501265 38.607166 38.722202 38.845762 38.978920
39.120929 39.272872 39.433868 39.604999 39.785251 39.975699 40.175195 40.384798
40.603230 40.831530 41.068293 41.314533 41.568720 41.831839 42.102247 42.380893
42.666031 42.958571 43.256676 43.561219 43.870281 44.184700 44.502493 44.824462
45.148578 45.475612 45.803507 46.133005 46.462044 46.791342 47.118850 47.445269
47.768583 48.089481 48.406001 48.718823 49.026056 49.328378 49.623984 49.913548
50.195370 50.470119 50.736210 50.994304 51.242941 51.482771 51.712462 51.932647
52.142128 52.341514 52.529739 52.707378 52.873501 53.028637 53.171989 53.304033
53.424102 53.532608 53.629010 53.713651 53.786112 53.846656 53.894988 53.931286
53.955371 53.967334 53.967115 53.954712 53.930184 53.893438 53.844649 53.783638
53.710697 53.625562 53.528648 53.419611 53.298991 53.166371 53.022417 52.866651
52.699868 52.521537 52.332585 52.132437 51.922156 51.701130 51.470558 51.229803
50.980198 50.721088 50.453936 50.178076 49.895095 49.604321 49.307455 49.003823
48.695228 48.380994 48.063011 47.740600 47.415724 47.087695 46.758531 46.427531
46.096749 45.765467 45.435752 45.106864 44.780864 44.456985 44.137261 43.820894
43.509874 43.203367 42.903300 42.608804 42.321729 42.041167 41.768876 41.503913
41.247934 40.999961 40.761537 40.531654 40.311735 40.100746 39.899986 39.708399
39.527155 39.355183 39.193523 39.041096 38.898809 38.765582 38.642190 38.527560
38.422337 38.325459 38.237444 38.157252 38.085273 38.020496 37.963188 37.912374
37.868202 37.829739 37.797019 37.769157 37.746077 37.726949 37.711592 37.699238
37.689605 37.681993 37.676024 37.671070 37.666667
38.044444 38.060610 38.077375 38.095243 38.114901 38.136755 38.161570 38.189649
38.221827 38.258298 38.299965 38.346903 38.400075 38.459435 38.525996 38.599587
38.681264 38.770726 38.869064 38.975841 39.092178 39.217499 39.352943 39.497794
39.653202 39.818308 39.994266 40.180070 40.376871 40.583520 40.801153 41.028479
41.266615 41.514131 41.772116 42.039006 42.315858 42.600982 42.895395 43.197290
43.507644 43.824543 44.148922 44.478773 44.814988 45.155482 45.501107 45.849717
46.202126 46.556148 46.912564 47.269170 47.626718 47.983007 48.338769 48.691827
49.042899 49.389855 49.733402 50.071482 50.404795 50.731371 51.051909 51.364542
51.669970 51.966445 52.254662 52.533004 52.802162 53.060653 53.309158 53.546335
53.772845 53.987492 54.190905 54.382034 54.561468 54.728298 54.883063 55.024993