# vtk DataFile Version 3.0
Steady-state temperature (Jacobi)
ASCII
DATASET STRUCTURED_POINTS
DIMENSIONS 181 181 1
ORIGIN 0.0 0.0 0.0
SPACING 0.05 0.05 1.0
POINT_DATA 32761
SCALARS Temperature float 1
LOOKUP_TABLE default
32.000000 32.000000 32.000000 32.000000 32.000000 32.000000 32.000000 32.000000
32.000000 32.000000 32.000000 32.000000 32.000000 32.000000 32.000000 32.000000
32.000000 32.000000 32.000000 32.000000 32.000000 32.000000 32.000000 32.000000
32.000000 32.000000 32.000000 32.000000 32.000000 32.000000 32.000000 32.000000
32.000000 32.000000 32.000000 32.000000 32.000000 32.000000 32.000000 32.000000
32.000000 32.000000 32.000000 32.000000 32.000000 32.000000 32.000000 32.000000
32.000000 32.000000 32.000000 32.000000 32.000000 32.000000 32.000000 32.000000
32.000000 32.000000 32.000000 32.000000 32.000000 32.000000 32.000000 32.000000
32.000000 32.000000 32.000000 32.000000 32.000000 32.000000 32.000000 32.000000
32.000000 32.000000 32.000000 32.000000 32.000000 32.000000 32.000000 32.000000
32.000000 32.000000 32.000000 32.000000 32.000000 32.000000 32.000000 32.000000
32.000000 32.000000 32.000000 32.000000 32.000000 32.000000 32.000000 32.000000
32.000000 32.000000 32.000000 32.000000 32.000000 32.000000 32.000000 32.000000
32.000000 32.000000 32.000000 32.000000 32.000000 32.000000 32.000000 32.000000
32.000000 32.000000 32.000000 32.000000 32.000000 32.000000 32.000000 32.000000
32.000000 32.000000 32.000000 32.000000 32.000000 32.000000 32.000000 32.000000
32.000000 32.000000 32.000000 32.000000 32.000000 32.000000 32.000000 32.000000
32.000000 32.000000 32.000000 32.000000 32.000000 32.000000 32.000000 32.000000
32.000000 32.000000 32.000000 32.000000 32.000000 32.000000 32.000000 32.000000
32.000000 32.000000 32.000000 32.000000 32.000000 32.000000 32.000000 32.000000
32.000000 32.000000 32.000000 32.000000 32.000000 32.000000 32.000000 32.000000
32.000000 32.000000 32.000000 32.000000 32.000000 32.000000 32.000000 32.000000
32.000000 32.000000 32.000000 32.000000 32.000000
32.377778 32.368469 32.359191 32.349980 32.340860 32.331872 32.323036 32.314397
32.305968 32.297797 32.289892 32.282306 32.275039 32.268146 32.261622 32.255524
32.249840 32.244630 32.239873 32.235633 32.231880 32.228682 32.225998 32.223900
32.222338 32.221386 32.220983 32.221207 32.221988 32.223406 32.225378 32.227989
32.231147 32.234936 32.239256 32.244192 32.249634 32.255670 32.262179 32.269252
32.276758 32.284791 32.293211 32.302113 32.311349 32.321016 32.330960 32.341279
32.351813 32.362661 32.373661 32.384911 32.396247 32.407767 32.419306 32.430963
32.442573 32.454236 32.465788 32.477329 32.488699 32.499995 32.511065 32.522003
32.532664 32.543140 32.553292 32.563211 32.572766 32.582045 32.590926 32.599493
32.607634 32.615428 32.622775 32.629746 32.636252 32.642360 32.647990 32.653202
32.657929 32.662220 32.666023 32.669376 32.672239 32.674642 32.676554 32.677997
32.678953 32.679433 32.679429 32.678942 32.677978 32.676527 32.674606 32.672194
32.669322 32.665958 32.662145 32.657841 32.653101 32.647875 32.642229 32.636105
32.629580 32.622588 32.615220 32.607401 32.599233 32.590636 32.581723 32.572409
32.562815 32.552855 32.542658 32.532133 32.521420 32.510424 32.499292 32.487929
32.476488 32.464870 32.453236 32.441485 32.429780 32.418023 32.406377 32.394743
32.383288 32.371910 32.360776 32.349786 32.339102 32.328627 32.318519 32.308681
32.299266 32.290178 32.281565 32.273331 32.265617 32.258330 32.251600 32.245338
32.239664 32.234490 32.229929 32.225893 32.222486 32.219622 32.217394 32.215721
32.214684 32.214204 32.214352 32.215052 32.216366 32.218220 32.220665 32.223632
32.227162 32.231187 32.235741 32.240759 32.246265 32.252198 32.258574 32.265335
32.272489 32.279981 32.287813 32.295933 32.304336 32.312972 32.321831 32.330868
32.340065 32.349383 32.358797 32.368271 32.377778
32.755556 32.736952 32.718415 32.700001 32.681785 32.663814 32.646173 32.628895
32.612072 32.595728 32.579963 32.564784 32.550301 32.536506 32.523516 32.511310
32.500008 32.489574 32.480136 32.471640 32.464221 32.457806 32.452535 32.448318
32.445301 32.443373 32.442687 32.443111 32.444803 32.447611 32.451699 32.456893
32.463361 32.470911 32.479714 32.489556 32.500615 32.512655 32.525859 32.539973
32.555181 32.571213 32.588257 32.606025 32.624709 32.644007 32.664113 32.684713
32.706004 32.727663 32.749888 32.772349 32.795246 32.818246 32.841549 32.864822
32.888265 32.911549 32.934871 32.957909 32.980860 33.003410 33.025753 33.047586
33.069101 33.090009 33.110496 33.130291 33.149573 33.168088 33.186009 33.203102
33.219529 33.235078 33.249900 33.263806 33.276933 33.289115 33.300475 33.310869
33.320405 33.328964 33.336635 33.343322 33.349097 33.353888 33.357747 33.360625
33.362553 33.363509 33.363501 33.362530 33.360586 33.357692 33.353817 33.349008
33.343214 33.336506 33.328813 33.320230 33.310668 33.300245 33.288855 33.276639
33.263474 33.249528 33.234660 33.219062 33.202581 33.185429 33.167444 33.148859
33.129501 33.109623 33.089046 33.068039 33.046419 33.024471 33.002004 32.979321
32.956227 32.933035 32.909547 32.886087 32.862456 32.838982 32.815466 32.792238
32.769101 32.746385 32.723892 32.701950 32.680361 32.659448 32.639014 32.619373
32.600332 32.582191 32.564761 32.548328 32.532704 32.518162 32.504517 32.492023
32.480500 32.470183 32.460895 32.452853 32.445885 32.440186 32.435589 32.432269
32.430064 32.429129 32.429306 32.430730 32.433250 32.436979 32.441773 32.447726
32.454699 32.462767 32.471797 32.481848 32.492793 32.504672 32.517365 32.530897
32.545154 32.560146 32.575766 32.592010 32.608778 32.626052 32.643739 32.661811
32.680181 32.698809 32.717618 32.736557 32.755556
33.133333 33.105467 33.077693 33.050118 33.022821 32.995921 32.969479 32.943628
32.918412 32.893974 32.870338 32.847661 32.825946 32.805360 32.785884 32.767694
32.750749 32.735235 32.721086 32.708497 32.697375 32.687926 32.680028 32.673897
32.669381 32.666704 32.665686 32.666559 32.669111 32.673582 32.679730 32.687803
32.697525 32.709153 32.722380 32.737468 32.754082 32.772489 32.792323 32.813859
32.836703 32.861134 32.886733 32.913784 32.941845 32.971203 33.001398 33.032721
33.064693 33.097610 33.130983 33.165106 33.199485 33.234417 33.269403 33.304740
33.339933 33.375278 33.410286 33.445252 33.479698 33.513917 33.547446 33.580572
33.612854 33.644572 33.675307 33.705333 33.734255 33.762337 33.789213 33.815135
33.839767 33.863345 33.885568 33.906653 33.926331 33.944800 33.961826 33.977584
33.991876 34.004851 34.016346 34.026483 34.035136 34.042399 34.048180 34.052542
34.055431 34.056880 34.056868 34.055397 34.052484 34.048097 34.042291 34.035002
34.026320 34.016152 34.004624 33.991614 33.977283 33.961482 33.944409 33.925889
33.906155 33.885009 33.862719 33.839067 33.814354 33.788344 33.761371 33.733184
33.704148 33.673997 33.643127 33.611262 33.578821 33.545522 33.511808 33.477390
33.442729 33.407532 33.372276 33.336667 33.301192 33.265553 33.230247 33.194975
33.160235 33.125729 33.091954 33.058612 33.026192 32.994401 32.963714 32.933842
32.905244 32.877635 32.851456 32.826423 32.802956 32.780777 32.760282 32.741194
32.723884 32.708083 32.694130 32.681764 32.671292 32.662462 32.655551 32.650312
32.646991 32.645351 32.645606 32.647527 32.651298 32.656698 32.663881 32.672636
32.683089 32.695036 32.708576 32.723515 32.739926 32.757624 32.776657 32.796850
32.818228 32.840625 32.864045 32.888333 32.913472 32.939316 32.965831 32.992882
33.020416 33.048311 33.076499 33.104867 33.133333
33.511111 33.474022 33.437067 33.400360 33.364052 33.328238 33.293085 33.258665
33.225162 33.192622 33.161247 33.131054 33.102260 33.074854 33.049068 33.024860
33.002474 32.981837 32.963207 32.946474 32.931910 32.919370 32.909137 32.901027
32.895336 32.891841 32.890848 32.892095 32.895899 32.901953 32.910588 32.921454
32.934891 32.950509 32.968655 32.988898 33.011594 33.036272 33.063296 33.092156
33.123222 33.155951 33.190719 33.226948 33.265021 33.304333 33.345270 33.387204
33.430525 33.474587 33.519782 33.565452 33.611992 33.658736 33.706080 33.753359
33.800969 33.848250 33.895597 33.942363 33.988940 34.034697 34.080023 34.124312
34.167943 34.210340 34.251874 34.291999 34.331076 34.368596 34.404903 34.439530
34.472801 34.504291 34.534303 34.562456 34.589029 34.613685 34.636674 34.657708
34.677003 34.694318 34.709836 34.723364 34.735045 34.744735 34.752538 34.758359
34.762259 34.764191 34.764176 34.762213 34.758281 34.752429 34.744592 34.734866
34.723147 34.709578 34.694017 34.676653 34.657306 34.636216 34.613165 34.588440
34.561793 34.533558 34.503456 34.471868 34.438489 34.403745 34.367309 34.329649
34.290419 34.250127 34.208413 34.165821 34.121977 34.077459 34.031886 33.985862
33.938999 33.891925 33.844248 33.796614 33.748628 33.700947 33.653175 33.605978
33.558957 33.512778 33.467046 33.422417 33.378500 33.335941 33.294348 33.254351
33.215562 33.178588 33.143047 33.109516 33.077619 33.047902 33.019997 32.994412
32.970787 32.949594 32.930480 32.913878 32.899442 32.887566 32.877913 32.870836
32.866008 32.863739 32.863714 32.866202 32.870900 32.878035 32.887317 32.898933
32.912605 32.928484 32.946302 32.966175 32.987849 33.011404 33.036599 33.063483
33.091828 33.121653 33.152742 33.185087 33.218486 33.252904 33.288154 33.324178
33.360802 33.397946 33.435453 33.473221 33.511111
33.888889 33.842642 33.796551 33.750795 33.705505 33.660883 33.617031 33.574173
33.532381 33.491898 33.452765 33.415244 33.379340 33.345335 33.313197 33.283224
33.255344 33.229873 33.206698 33.186150 33.168071 33.152808 33.140157 33.130480
33.123523 33.119665 33.118601 33.120722 33.125672 33.133857 33.144868 33.159122
33.176157 33.196404 33.219348 33.245429 33.274082 33.305757 33.339840 33.376790
33.415946 33.457775 33.501574 33.547816 33.595760 33.645887 33.697421 33.750849
33.805370 33.861473 33.918339 33.976459 34.035002 34.094462 34.154004 34.214122
34.273984 34.334084 34.393602 34.453029 34.511563 34.569692 34.626641 34.682889
34.737695 34.791527 34.843683 34.894620 34.943678 34.991297 35.036866 35.080803
35.122551 35.162500 35.200149 35.235860 35.269185 35.300455 35.329280 35.355952
35.380141 35.402095 35.421546 35.438696 35.453335 35.465619 35.475397 35.482776
35.487663 35.490112 35.490093 35.487606 35.482679 35.475261 35.465440 35.453111
35.438425 35.421224 35.401718 35.379704 35.355451 35.328708 35.299805 35.268450
35.235031 35.199218 35.161457 35.121384 35.079503 35.035418 34.989689 34.941895
34.892645 34.841501 34.789119 34.735042 34.679971 34.623437 34.566179 34.507716
34.448824 34.389012 34.329082 34.268541 34.208208 34.147588 34.087512 34.027485
33.968340 33.909584 33.852047 33.795236 33.739970 33.685760 33.633406 33.582423
33.533584 33.486411 33.441646 33.398814 33.358621 33.320600 33.285414 33.252606
33.222792 33.195524 33.171370 33.149893 33.131610 33.116094 33.103811 33.094348
33.088118 33.084719 33.084513 33.087113 33.092829 33.101288 33.112752 33.126860
33.143827 33.163309 33.185471 33.209988 33.236981 33.266140 33.297544 33.330899
33.366246 33.403308 33.442090 33.482331 33.524001 33.566859 33.610843 33.655728
33.701426 33.747730 33.794525 33.841625 33.888889
34.266667 34.211329 34.156194 34.101435 34.047283 33.993877 33.941475 33.890184
33.840284 33.791844 33.745170 33.700291 33.657532 33.616882 33.578687 33.542888
33.509854 33.479475 33.452142 33.427691 33.406532 33.388449 33.373868 33.362515
33.354836 33.350496 33.349959 33.352827 33.359581 33.369760 33.383861 33.401359
33.422766 33.447492 33.476062 33.507826 33.543320 33.581832 33.623910 33.668785
33.717013 33.767773 33.821628 33.877709 33.936588 33.997350 34.060575 34.125313
34.192149 34.260105 34.329770 34.400147 34.471827 34.543805 34.616674 34.689427
34.762656 34.835367 34.908148 34.980022 35.051576 35.121859 35.191451 35.259439
35.326392 35.391439 35.455138 35.516666 35.576564 35.634066 35.689689 35.742729
35.793674 35.841885 35.887818 35.930901 35.971551 36.009267 36.044421 36.076582
36.106076 36.132544 36.156257 36.176929 36.194775 36.209579 36.221499 36.230390
36.236348 36.239299 36.239276 36.236279 36.230275 36.221335 36.209365 36.194507
36.176604 36.155871 36.132092 36.105553 36.075980 36.043734 36.008486 35.970669
35.929907 35.886701 35.840634 35.792275 35.741168 35.687952 35.632136 35.574424
35.514297 35.452519 35.388550 35.323209 35.255938 35.187606 35.117643 35.046960
34.974976 34.902640 34.829365 34.756125 34.682330 34.608975 34.535466 34.462807
34.390405 34.319264 34.248794 34.179988 34.112259 34.046582 33.982374 33.920584
33.860632 33.803435 33.748418 33.696456 33.646983 33.600823 33.557422 33.517551
33.480664 33.447476 33.417454 33.391252 33.368349 33.349337 33.333710 33.321998
33.313708 33.309308 33.308322 33.311154 33.317346 33.327240 33.340396 33.357098
33.376922 33.400097 33.426217 33.455455 33.487427 33.522254 33.559570 33.599447
33.641541 33.685878 33.732134 33.780293 33.830050 33.881353 33.933918 33.987654
34.042301 34.097736 34.153721 34.210102 34.266667
34.644444 34.580112 34.516001 34.452366 34.389391 34.327363 34.266428 34.206901
34.148887 34.092730 34.038488 33.986532 33.936873 33.889906 33.845590 33.804347
33.766077 33.731226 33.699636 33.671777 33.647428 33.627078 33.610443 33.598033
33.589494 33.585358 33.585199 33.589568 33.597966 33.610965 33.627988 33.649624
33.675225 33.705394 33.739407 33.777884 33.820028 33.866472 33.916349 33.970304
34.027403 34.088302 34.152009 34.219186 34.288786 34.361482 34.436180 34.513558
34.592486 34.673646 34.755881 34.839877 34.924459 35.010318 35.096272 35.183011
35.269361 35.356010 35.441800 35.527418 35.611732 35.695422 35.777395 35.858322
35.937157 36.014556 36.089531 36.162719 36.233194 36.301571 36.366992 36.430043
36.489941 36.547235 36.601221 36.652407 36.700168 36.744967 36.786257 36.824450
36.859084 36.890510 36.918349 36.942889 36.963836 36.981410 36.995399 37.005952
37.012943 37.016447 37.016420 37.012863 37.005817 36.995208 36.981159 36.963524
36.942510 36.917899 36.889983 36.858474 36.823749 36.785456 36.744057 36.699139
36.651248 36.599918 36.545776 36.488309 36.428223 36.364966 36.299320 36.230698
36.159956 36.086477 36.011186 35.933444 35.854238 35.772910 35.690504 35.606347
35.521532 35.435376 35.349008 35.261742 35.174733 35.087291 35.000589 34.913937
34.828512 34.743625 34.660450 34.578299 34.498329 34.419856 34.344011 34.270116
34.199264 34.130784 34.065724 34.003421 33.944870 33.889417 33.837997 33.789967
33.746199 33.706061 33.670355 33.638464 33.611118 33.587716 33.568914 33.554128
33.543940 33.537784 33.536168 33.538545 33.545352 33.556061 33.571038 33.589776
33.612574 33.638946 33.669125 33.702648 33.739686 33.779798 33.823097 33.869165
33.918059 33.969386 34.023152 34.078988 34.136850 34.196396 34.257539 34.319960
34.383532 34.447965 34.513092 34.578652 34.644444
35.022222 34.948990 34.876032 34.803583 34.731954 34.661336 34.592077 34.524320
34.458447 34.394551 34.333045 34.273969 34.217766 34.164418 34.114396 34.067621
34.024592 33.985163 33.949861 33.918470 33.891541 33.868787 33.850782 33.837161
33.828525 33.824424 33.825485 33.831175 33.842141 33.857765 33.878715 33.904288
33.935169 33.970569 34.011192 34.056163 34.106202 34.160351 34.219343 34.282145
34.349499 34.420300 34.495301 34.573329 34.655149 34.739528 34.827238 34.916999
35.009588 35.103689 35.200082 35.297427 35.396507 35.495968 35.596596 35.697036
35.798075 35.898370 35.998706 36.097768 36.196332 36.293124 36.388911 36.482468
36.574551 36.663992 36.751531 36.836069 36.918323 36.997271 37.073598 37.146366
37.216225 37.282322 37.345266 37.404294 37.459963 37.511605 37.559721 37.603734
37.644083 37.680287 37.712713 37.740978 37.765373 37.785610 37.801900 37.814052
37.822193 37.826227 37.826196 37.822101 37.813898 37.801682 37.785324 37.765016
37.740545 37.712199 37.679685 37.643385 37.602932 37.558805 37.510566 37.458788
37.402969 37.343778 37.280655 37.214361 37.144287 37.071284 36.994699 36.915471
36.832912 36.748041 36.660141 36.570308 36.477801 36.383786 36.287504 36.190180
36.091042 35.991365 35.890370 35.789368 35.687576 35.586333 35.484850 35.384482
35.284440 35.186077 35.088609 34.993375 34.899595 34.808583 34.719562 34.633813
34.550563 34.471046 34.394498 34.322094 34.253080 34.188566 34.127810 34.071850
34.019956 33.973087 33.930530 33.893163 33.860288 33.832699 33.809717 33.792051
33.779041 33.771312 33.768223 33.770317 33.776975 33.788657 33.804767 33.825686
33.850843 33.880541 33.914234 33.952153 33.993778 34.039269 34.088133 34.140466
34.195801 34.254172 34.315141 34.378685 34.444394 34.512193 34.581699 34.652790
34.725114 34.798503 34.872636 34.947305 35.022222
35.400000 35.317995 35.236280 35.155186 35.074956 34.995963 34.918400 34.842679
34.768936 34.697622 34.628813 34.562996 34.500184 34.440896 34.385079 34.333283
34.285383 34.241960 34.202812 34.168550 34.138891 34.114475 34.094931 34.080928
34.072007 34.068862 34.070941 34.078963 34.092280 34.111635 34.136285 34.166992
34.202915 34.244839 34.291823 34.344670 34.402346 34.465670 34.533514 34.606712
34.684051 34.766377 34.852396 34.942964 35.036719 35.134523 35.234954 35.338882
35.444835 35.553690 35.663937 35.776458 35.889723 36.004613 36.119594 36.235546
36.350943 36.466666 36.581209 36.695449 36.807918 36.919486 37.028736 37.136526
37.241500 37.344502 37.444249 37.541562 37.635243 37.726082 37.812971 37.896666
37.976155 38.052148 38.123736 38.191578 38.254866 38.314199 38.368878 38.419432
38.465269 38.506843 38.543670 38.576121 38.603819 38.627050 38.645543 38.659490
38.668731 38.673362 38.673327 38.668628 38.659317 38.645297 38.626728 38.603418
38.575634 38.543092 38.506166 38.464485 38.418531 38.367849 38.313031 38.253544
38.190088 38.122063 38.050273 37.974058 37.894327 37.810368 37.723190 37.632035
37.538011 37.440324 37.340171 37.236728 37.131277 37.022972 36.913165 36.800998
36.687883 36.572951 36.457666 36.341150 36.224905 36.108049 35.992107 35.876196
35.761849 35.648183 35.536726 35.426598 35.319304 35.213969 35.112063 35.012717
34.917354 34.825112 34.737352 34.653223 34.574018 34.498894 34.429067 34.363706
34.303943 34.248961 34.199802 34.155667 34.117502 34.084527 34.057594 34.035943
34.020329 34.010014 34.005658 34.006547 34.013247 34.025070 34.042489 34.064843
34.092516 34.124876 34.162223 34.203952 34.250283 34.300640 34.355167 34.413320
34.475170 34.540204 34.608427 34.679356 34.752937 34.828718 34.906586 34.986125
35.067169 35.149337 35.232414 35.316055 35.400000
35.777778 35.687121 35.596814 35.507154 35.418539 35.331213 35.245616 35.161934
35.080651 35.001889 34.926171 34.853552 34.784594 34.719277 34.658201 34.601269
34.549114 34.501557 34.459265 34.421970 34.390372 34.364109 34.343914 34.329325
34.321107 34.318694 34.322880 34.332996 34.349859 34.372693 34.402342 34.437919
34.480291 34.528461 34.583317 34.643754 34.710679 34.782882 34.861283 34.944576
35.033693 35.127233 35.226142 35.328933 35.436562 35.547468 35.662614 35.780378
35.901729 36.024998 36.151157 36.278507 36.408021 36.537984 36.669372 36.800471
36.932255 37.063028 37.193763 37.322796 37.451095 37.577046 37.701608 37.823230
37.942857 38.059016 38.172630 38.282316 38.388969 38.491303 38.590178 38.684415
38.774830 38.860352 38.941746 39.018057 39.089986 39.156697 39.218820 39.275637
39.327699 39.374406 39.416223 39.452670 39.484116 39.510201 39.531193 39.546853
39.557341 39.562540 39.562502 39.557227 39.546660 39.530920 39.509844 39.483670
39.452130 39.415581 39.373655 39.326828 39.274637 39.217678 39.155400 39.088519
39.016403 38.939887 38.858269 38.772501 38.681818 38.587287 38.488090 38.385406
38.278371 38.168270 38.054204 37.937556 37.817399 37.695204 37.570024 37.443407
37.314391 37.184589 37.053030 36.921375 36.788649 36.656547 36.524090 36.392993
36.262276 36.133655 36.006152 35.881467 35.758627 35.639299 35.522515 35.409896
35.300481 35.195829 35.094987 34.999443 34.908253 34.822821 34.742217 34.667751
34.598508 34.535701 34.478429 34.427803 34.382941 34.344848 34.312662 34.287281
34.267866 34.255207 34.248493 34.248404 34.254157 34.266330 34.284167 34.308146
34.337541 34.372734 34.413029 34.458716 34.509133 34.564481 34.624132 34.688204
34.756104 34.827874 34.902953 34.981313 35.062430 35.146208 35.232161 35.320132
35.409672 35.500568 35.592412 35.684936 35.777778
36.155556 36.056406 35.957617 35.859604 35.762668 35.667277 35.573669 35.482360
35.393521 35.307712 35.225033 35.146088 35.070898 35.000108 34.933658 34.872231
34.815677 34.764719 34.719111 34.679614 34.645881 34.618707 34.597641 34.583511
34.575754 34.575232 34.581265 34.594748 34.614880 34.642585 34.676942 34.718898
34.767413 34.823457 34.885869 34.955638 35.031486 35.114419 35.203044 35.298384
35.398937 35.505738 35.617188 35.734330 35.855477 35.981681 36.111178 36.245027
36.381404 36.521372 36.663062 36.807541 36.952915 37.100251 37.247646 37.396170
37.543929 37.691991 37.838494 37.984500 38.128194 38.270632 38.410062 38.547528
38.681358 38.812577 38.939608 39.063449 39.182626 39.298107 39.408531 39.514821
39.615738 39.712153 39.802952 39.888944 39.969144 40.044287 40.113520 40.177496
40.235491 40.288067 40.334634 40.375650 40.410657 40.440006 40.463371 40.480988
40.492661 40.498510 40.498468 40.492536 40.480777 40.463071 40.439614 40.410167
40.375056 40.333928 40.287241 40.234534 40.176396 40.112265 40.042861 39.967530
39.887126 39.800909 39.709863 39.613178 39.511966 39.405352 39.294575 39.178709
39.059112 38.934813 38.807287 38.675529 38.541116 38.403020 38.262910 38.119739
37.975257 37.828405 37.680995 37.531963 37.383168 37.233540 37.084970 36.936386
36.789690 36.643811 36.500643 36.359118 36.221103 36.085534 35.954236 35.826148
35.703036 35.583848 35.470272 35.361267 35.258434 35.160742 35.069694 34.984273
34.905876 34.833501 34.768434 34.709689 34.658437 34.613714 34.576570 34.546065
34.523130 34.506852 34.498042 34.495816 34.500867 34.512343 34.530825 34.555490
34.586811 34.624001 34.667425 34.716333 34.770991 34.830684 34.895586 34.965018
35.039066 35.117091 35.199095 35.284478 35.373167 35.464603 35.558642 35.654765
35.752765 35.852167 35.952700 36.053939 36.155556
36.533333 36.425837 36.318769 36.212497 36.107505 36.004096 35.902809 35.803873
35.707882 35.614987 35.525829 35.440480 35.359626 35.283250 35.212084 35.146015
35.085820 35.031284 34.983223 34.941318 34.906424 34.878106 34.857260 34.843332
34.837251 34.838339 34.847562 34.864112 34.888985 34.921242 34.961909 35.009913
35.066305 35.129878 35.201706 35.280451 35.367207 35.460505 35.561456 35.668469
35.782669 35.902350 36.028648 36.159753 36.296808 36.437913 36.584219 36.733749
36.887658 37.043913 37.203669 37.364856 37.528633 37.692907 37.858840 38.024342
38.190572 38.355464 38.520175 38.682682 38.844136 39.002576 39.159145 39.311961
39.462152 39.607934 39.750410 39.887908 40.021501 40.149635 40.273346 40.391209
40.504209 40.611057 40.712676 40.807918 40.897632 40.980814 41.058227 41.129012
41.193835 41.251982 41.304014 41.349360 41.388466 41.420906 41.447002 41.466470
41.479507 41.485970 41.485924 41.479370 41.466240 41.446675 41.420478 41.387933
41.348713 41.303245 41.251082 41.192792 41.127813 41.056858 40.979259 40.895873
40.805936 40.710449 40.608561 40.501418 40.388097 40.269880 40.145785 40.017229
39.883179 39.745183 39.602165 39.455796 39.304969 39.151465 38.994155 38.834915
38.672602 38.509172 38.343471 38.177521 38.010161 37.843454 37.676240 37.510604
37.345385 37.182672 37.021303 36.863350 36.707654 36.556248 36.407977 36.264817
36.125618 35.992281 35.863665 35.741580 35.624894 35.515315 35.411722 35.315711
35.226175 35.144590 35.069865 35.003349 34.943973 34.892954 34.849248 34.813940
34.786013 34.766418 34.754170 34.750090 34.753223 34.764265 34.782296 34.807888
34.840156 34.879558 34.925244 34.977561 35.035698 35.099895 35.169384 35.244303
35.323927 35.408301 35.496741 35.589207 35.685057 35.784173 35.885957 35.990216
36.096401 36.204247 36.313256 36.423100 36.533333
36.911111 36.795458 36.680241 36.565963 36.452990 36.341887 36.232944 36.126783
36.023616 35.924118 35.828415 35.737235 35.650609 35.569317 35.493290 35.423354
35.359336 35.302107 35.251380 35.208071 35.171772 35.143441 35.122543 35.110077
35.105374 35.109472 35.121563 35.142720 35.171992 35.210485 35.257103 35.312980
35.376875 35.449945 35.530804 35.620632 35.717899 35.823802 35.936672 36.057724
36.185157 36.320196 36.460921 36.608565 36.761101 36.919767 37.082446 37.250380
37.421377 37.596683 37.774052 37.954732 38.136446 38.320442 38.504433 38.689669
38.873876 39.058303 39.240714 39.422353 39.601043 39.778022 39.951194 40.121782
40.287790 40.450422 40.607796 40.761091 40.908552 41.051321 41.187781 41.319027
41.443589 41.562502 41.674446 41.780385 41.879155 41.971634 42.056814 42.135474
42.206766 42.271358 42.328558 42.378914 42.421890 42.457905 42.486576 42.508187
42.522509 42.529683 42.529634 42.522361 42.507938 42.486223 42.457443 42.421313
42.378214 42.327726 42.270384 42.205637 42.134177 42.055332 41.969951 41.877252
41.778240 41.672035 41.559800 41.440569 41.315658 41.184029 41.047152 40.903928
40.755971 40.602136 40.444175 40.280907 40.114210 39.942877 39.768902 39.591057
39.411435 39.228797 39.045314 38.859741 38.674309 38.487768 38.302389 38.116918
37.933642 37.751308 37.572193 37.395046 37.222114 37.052148 36.887341 36.726448
36.571591 36.421529 36.278293 36.140651 36.010525 35.886695 35.770963 35.662122
35.561846 35.468941 35.384948 35.308690 35.241566 35.182424 35.132518 35.090723
35.058147 35.033695 35.018333 35.010999 35.012517 35.021862 35.039720 35.065106
35.098575 35.139180 35.187352 35.242187 35.303996 35.371918 35.446153 35.525884
35.611208 35.701352 35.796315 35.895373 35.998432 36.104817 36.214352 36.326411
36.440740 36.556765 36.674159 36.792406 36.911111
37.288889 37.165249 37.042122 36.919948 36.799306 36.680560 36.564354 36.450965
36.341101 36.234948 36.133272 36.036163 35.944440 35.858089 35.777984 35.704000
35.637060 35.576920 35.524552 35.479586 35.443041 35.414410 35.394760 35.383442
35.381563 35.388329 35.404885 35.430283 35.465707 35.510050 35.564528 35.627876
35.701338 35.783489 35.875597 35.976079 36.086223 36.204292 36.331590 36.466234
36.609537 36.759480 36.917385 37.081108 37.251977 37.427737 37.609721 37.795584
37.986659 38.180532 38.378538 38.578215 38.780899 38.984106 39.189171 39.393616
39.598773 39.802193 40.005207 40.205419 40.404156 40.599099 40.791567 40.979339
41.163719 41.342606 41.517280 41.685773 41.849335 42.006143 42.157404 42.301451
42.439436 42.569854 42.693787 42.809898 42.919184 43.020478 43.114679 43.200789
43.279594 43.350269 43.413473 43.468548 43.516021 43.555398 43.587063 43.610687
43.626502 43.634345 43.634292 43.626343 43.610419 43.586683 43.554901 43.515400
43.467795 43.412578 43.349221 43.278380 43.199393 43.113085 43.018668 42.917137
42.807590 42.691193 42.566947 42.436186 42.297825 42.153366 42.001656 41.844358
41.680262 41.511188 41.335882 41.156311 40.971188 40.782614 40.589281 40.393405
40.193665 39.992377 39.788208 39.583554 39.377078 39.171229 38.964668 38.759873
38.555506 38.354048 38.154162 37.958307 37.765148 37.577097 37.392821 37.214664
37.041295 36.874970 36.714360 36.561615 36.415413 36.277778 36.147400 36.026168
35.912784 35.808991 35.713509 35.627929 35.550992 35.484132 35.426116 35.378222
35.339244 35.310304 35.290230 35.279988 35.278443 35.286410 35.302795 35.328267
35.361774 35.403846 35.453473 35.511057 35.575632 35.647474 35.725667 35.810369
35.900712 35.996744 36.097650 36.203375 36.313155 36.426841 36.543724 36.663566
36.785713 36.909848 37.035374 37.161899 37.288889
37.666667 37.535260 37.404372 37.274596 37.146369 37.020358 36.896912 36.776764
36.660170 36.547929 36.440194 36.337827 36.240873 36.150250 36.065889 35.988764
35.918681 35.856669 35.802400 35.756956 35.719868 35.692266 35.673533 35.664845
35.665430 35.676507 35.697141 35.728591 35.769755 35.821927 35.883834 35.956802
36.039383 36.132931 36.235826 36.349444 36.471994 36.604868 36.746113 36.897133
37.055819 37.223585 37.398177 37.581015 37.769718 37.965705 38.166488 38.373488
38.584127 38.799825 39.017942 39.239897 39.463013 39.688707 39.914292 40.141187
40.366721 40.592312 40.815338 41.037212 41.255385 41.471265 41.682401 41.890190
42.092302 42.290116 42.481440 42.667628 42.846640 43.019792 43.185211 43.344162
43.494946 43.638762 43.774089 43.902047 44.021297 44.132861 44.235583 44.330373
44.416259 44.494022 44.562870 44.623447 44.675139 44.718437 44.752906 44.778878
44.796091 44.804714 44.804657 44.795921 44.778592 44.752500 44.717906 44.674475
44.622641 44.561913 44.492901 44.414960 44.328880 44.233878 44.130924 44.019106
43.899577 43.771314 43.635650 43.491467 43.340281 43.180889 43.014989 42.841311
42.661727 42.474917 42.282917 42.084368 41.881462 41.672813 41.460750 41.243871
41.024624 40.801596 40.577334 40.350420 40.123473 39.895072 39.667885 39.440490
39.215571 38.991708 38.771577 38.553755 38.340883 38.131540 37.928301 37.729746
37.538366 37.352740 37.175251 37.004483 36.842692 36.688467 36.543925 36.407663
36.281644 36.164482 36.057974 35.960754 35.874453 35.797725 35.732034 35.676060
35.631096 35.595856 35.571461 35.556665 35.552424 35.557529 35.572778 35.597005
35.630856 35.673210 35.724566 35.783853 35.851430 35.926277 36.008624 36.097502
36.193018 36.294259 36.401217 36.513034 36.629596 36.750104 36.874345 37.001578
37.131501 37.263435 37.396991 37.531558 37.666667
38.044444 37.905466 37.767090 37.629835 37.494382 37.361160 37.230926 37.104010
36.981240 36.862843 36.749714 36.641966 36.540562 36.445494 36.357785 36.277299
36.205119 36.140970 36.085993 36.039764 36.003480 35.976562 35.960256 35.953821
35.958549 35.973529 36.000097 36.037163 36.086104 36.145646 36.217202 36.299311
36.393414 36.497866 36.614131 36.740378 36.878090 37.025254 37.183367 37.350242
37.527385 37.712446 37.906935 38.108356 38.318217 38.533895 38.756896 38.984488
39.218177 39.455146 39.696899 39.940567 40.187647 40.435246 40.684863 40.933607
41.182976 41.430117 41.676527 41.919419 42.160287 42.396439 42.629362 42.856486
43.079284 43.295329 43.506074 43.709251 43.906283 44.095078 44.277012 44.450178
44.615893 44.772442 44.921067 45.060245 45.191126 45.312384 45.425058 45.528017