# vtk DataFile Version 3.0
Steady-state temperature (Jacobi)
ASCII
DATASET STRUCTURED_POINTS
DIMENSIONS 181 181 1
ORIGIN 0.0 0.0 0.0
SPACING 0.05 0.05 1.0
POINT_DATA 32761
SCALARS Temperature float 1
LOOKUP_TABLE default
32.000000 32.000000 32.000000 32.000000 32.000000 32.000000 32.000000 32.000000
32.000000 32.000000 32.000000 32.000000 32.000000 32.000000 32.000000 32.000000
32.000000 32.000000 32.000000 32.000000 32.000000 32.000000 32.000000 32.000000
32.000000 32.000000 32.000000 32.000000 32.000000 32.000000 32.000000 32.000000
32.000000 32.000000 32.000000 32.000000 32.000000 32.000000 32.000000 32.000000
32.000000 32.000000 32.000000 32.000000 32.000000 32.000000 32.000000 32.000000
32.000000 32.000000 32.000000 32.000000 32.000000 32.000000 32.000000 32.000000
32.000000 32.000000 32.000000 32.000000 32.000000 32.000000 32.000000 32.000000
32.000000 32.000000 32.000000 32.000000 32.000000 32.000000 32.000000 32.000000
32.000000 32.000000 32.000000 32.000000 32.000000 32.000000 32.000000 32.000000
32.000000 32.000000 32.000000 32.000000 32.000000 32.000000 32.000000 32.000000
32.000000 32.000000 32.000000 32.000000 32.000000 32.000000 32.000000 32.000000
32.000000 32.000000 32.000000 32.000000 32.000000 32.000000 32.000000 32.000000
32.000000 32.000000 32.000000 32.000000 32.000000 32.000000 32.000000 32.000000
32.000000 32.000000 32.000000 32.000000 32.000000 32.000000 32.000000 32.000000
32.000000 32.000000 32.000000 32.000000 32.000000 32.000000 32.000000 32.000000
32.000000 32.000000 32.000000 32.000000 32.000000 32.000000 32.000000 32.000000
32.000000 32.000000 32.000000 32.000000 32.000000 32.000000 32.000000 32.000000
32.000000 32.000000 32.000000 32.000000 32.000000 32.000000 32.000000 32.000000
32.000000 32.000000 32.000000 32.000000 32.000000 32.000000 32.000000 32.000000
32.000000 32.000000 32.000000 32.000000 32.000000 32.000000 32.000000 32.000000
32.000000 32.000000 32.000000 32.000000 32.000000 32.000000 32.000000 32.000000
32.000000 32.000000 32.000000 32.000000 32.000000
32.377778 32.409498 32.441222 32.472951 32.504688 32.536435 32.568196 32.599972
32.631765 32.663578 32.695412 32.727267 32.759146 32.791047 32.822973 32.854921
32.886893 32.918885 32.950898 32.982927 33.014971 33.047026 33.079088 33.111151
33.143211 33.175260 33.207293 33.239302 33.271278 33.303211 33.335093 33.366912
33.398656 33.430314 33.461872 33.493315 33.524631 33.555803 33.586815 33.617650
33.648291 33.678720 33.708919 33.738866 33.768545 33.797934 33.827013 33.855761
33.884158 33.912182 33.939813 33.967028 33.993808 34.020130 34.045975 34.071322
34.096151 34.120442 34.144176 34.167334 34.189900 34.211853 34.233180 34.253864
34.273889 34.293241 34.311907 34.329874 34.347131 34.363665 34.379468 34.394529
34.408841 34.422395 34.435184 34.447202 34.458444 34.468904 34.478577 34.487460
34.495549 34.502842 34.509336 34.515029 34.519918 34.524004 34.527284 34.529757
34.531424 34.532283 34.532335 34.531580 34.530018 34.527649 34.524475 34.520497
34.515716 34.510133 34.503751 34.496572 34.488599 34.479834 34.470282 34.459947
34.448833 34.436946 34.424292 34.410876 34.396707 34.381793 34.366142 34.349764
34.332668 34.314868 34.296373 34.277199 34.257356 34.236862 34.215730 34.193977
34.171620 34.148676 34.125162 34.101099 34.076505 34.051401 34.025805 33.999740
33.973225 33.946282 33.918931 33.891196 33.863095 33.834651 33.805884 33.776817
33.747467 33.717858 33.688006 33.657933 33.627656 33.597194 33.566564 33.535784
33.504868 33.473834 33.442694 33.411464 33.380156 33.348784 33.317357 33.285889
33.254386 33.222861 33.191320 33.159772 33.128222 33.096679 33.065146 33.033629
33.002131 32.970657 32.939209 32.907789 32.876398 32.845038 32.813710 32.782413
32.751147 32.719912 32.688705 32.657527 32.626374 32.595245 32.564137 32.533047
32.501974 32.470914 32.439863 32.408819 32.377778
32.755556 32.818998 32.882445 32.945904 33.009378 33.072875 33.136397 33.199951
33.263539 33.327167 33.390835 33.454549 33.518308 33.582115 33.645969 33.709871
33.773817 33.837808 33.901837 33.965903 34.029996 34.094113 34.158243 34.222378
34.286505 34.350615 34.414690 34.478719 34.542681 34.606561 34.670336 34.733988
34.797490 34.860821 34.923951 34.986856 35.049503 35.111865 35.173906 35.235596
35.296897 35.357775 35.418191 35.478108 35.537486 35.596285 35.654464 35.711983
35.768797 35.824868 35.880149 35.934602 35.988182 36.040849 36.092558 36.143273
36.192950 36.241552 36.289038 36.335373 36.380520 36.424446 36.467114 36.508497
36.548561 36.587279 36.624623 36.660569 36.695092 36.728172 36.759786 36.789918
36.818549 36.845664 36.871248 36.895291 36.917778 36.938702 36.958052 36.975822
36.992003 37.006591 37.019581 37.030968 37.040749 37.048920 37.055481 37.060428
37.063762 37.065481 37.065585 37.064074 37.060949 37.056212 37.049863 37.041905
37.032341 37.021174 37.008408 36.994047 36.978098 36.960565 36.941458 36.920783
36.898550 36.874770 36.849455 36.822617 36.794272 36.764434 36.733123 36.700356
36.666155 36.630541 36.593541 36.555177 36.515479 36.474475 36.432196 36.388672
36.343941 36.298034 36.250990 36.202843 36.153637 36.103406 36.052196 36.000043
35.946992 35.893084 35.838363 35.782868 35.726646 35.669736 35.612183 35.554025
35.495307 35.436066 35.376344 35.316176 35.255605 35.194661 35.133384 35.071805
35.009958 34.947872 34.885578 34.823103 34.760474 34.697714 34.634850 34.571899
34.508884 34.445822 34.382731 34.319624 34.256518 34.193422 34.130350 34.067308
34.004307 33.941353 33.878451 33.815605 33.752821 33.690097 33.627437 33.564840
33.502306 33.439833 33.377419 33.315060 33.252753 33.190493 33.128277 33.066097
33.003950 32.941828 32.879726 32.817638 32.755556
33.133333 33.228498 33.323671 33.418861 33.514076 33.609322 33.704610 33.799943
33.895330 33.990775 34.086284 34.181859 34.277506 34.373223 34.469013 34.564874
34.660806 34.756802 34.852861 34.948971 35.045129 35.141319 35.237534 35.333755
35.429970 35.526155 35.622295 35.718363 35.814336 35.910184 36.005881 36.101390
36.196681 36.291712 36.386448 36.480844 36.574859 36.668443 36.761553 36.854132
36.946133 37.037497 37.128173 37.218098 37.307219 37.395469 37.482792 37.569122
37.654400 37.738558 37.821536 37.903267 37.983692 38.062742 38.140361 38.216481
38.291047 38.363996 38.435274 38.504821 38.572586 38.638514 38.702558 38.764668
38.824800 38.882910 38.938959 38.992906 39.044719 39.094362 39.141808 39.187025
39.229991 39.270680 39.309073 39.345149 39.378893 39.410289 39.439324 39.465986
39.490266 39.512154 39.531644 39.548728 39.563402 39.575663 39.585505 39.592928
39.597929 39.600508 39.600664 39.598397 39.593708 39.586601 39.577075 39.565136
39.550786 39.534031 39.514876 39.493329 39.469397 39.443090 39.414419 39.383396
39.350034 39.314351 39.276361 39.236088 39.193549 39.148773 39.101782 39.052607
39.001278 38.947829 38.892295 38.834718 38.775134 38.713591 38.650131 38.584807
38.517664 38.448760 38.378145 38.305880 38.232018 38.156624 38.079754 38.001474
37.921843 37.840929 37.758791 37.675498 37.591108 37.505692 37.419306 37.332019
37.243887 37.154976 37.065341 36.975043 36.884135 36.792676 36.700713 36.608302
36.515487 36.422320 36.328839 36.235091 36.141110 36.046940 35.952609 35.858155
35.763602 35.668984 35.574321 35.479639 35.384957 35.290295 35.195666 35.101088
35.006570 34.912126 34.817759 34.723481 34.629292 34.535198 34.441199 34.347298
34.253489 34.159775 34.066148 33.972606 33.879142 33.785750 33.692422 33.599152
33.505929 33.412745 33.319591 33.226457 33.133333
33.511111 33.638001 33.764902 33.891825 34.018782 34.145783 34.272837 34.399955
34.527144 34.654413 34.781767 34.909213 35.036752 35.164391 35.292126 35.419960
35.547886 35.675905 35.804005 35.932181 36.060418 36.188706 36.317025 36.445359
36.573683 36.701977 36.830207 36.958349 37.086364 37.214220 37.341872 37.469283
37.596400 37.723181 37.849565 37.975505 38.100934 38.225797 38.350024 38.473553
38.596308 38.718222 38.839214 38.959213 39.078135 39.195904 39.312432 39.427642
39.541444 39.653758 39.764494 39.873572 39.980901 40.086403 40.189987 40.291579
40.391090 40.488448 40.583569 40.676385 40.766817 40.854801 40.940265 41.023150
41.103391 41.180934 41.255722 41.327708 41.396841 41.463080 41.526382 41.586712
41.644034 41.698319 41.749537 41.797666 41.842680 41.884561 41.923292 41.958857
41.991242 42.020438 42.046433 42.069220 42.088792 42.105144 42.118271 42.128171
42.134840 42.138279 42.138487 42.135463 42.129210 42.119729 42.107024 42.091099
42.071959 42.049611 42.024062 41.995320 41.963398 41.928306 41.890060 41.848675
41.804170 41.756565 41.705885 41.652153 41.595401 41.535658 41.472962 41.407347
41.338858 41.267537 41.193436 41.116600 41.037091 40.954961 40.870276 40.783097
40.693495 40.601536 40.507298 40.410851 40.312279 40.211656 40.109069 40.004595
39.898324 39.790335 39.680719 39.569557 39.456940 39.342948 39.227670 39.111185
38.993582 38.874935 38.755330 38.634838 38.513541 38.391505 38.268807 38.145508
38.021679 37.897377 37.772667 37.647597 37.522227 37.396601 37.270770 37.144772
37.018652 36.892442 36.766181 36.639893 36.513612 36.387357 36.261153 36.135016
36.008966 35.883011 35.757167 35.631439 35.505836 35.380359 35.255014 35.129796
35.004709 34.879744 34.754901 34.630170 34.505546 34.381017 34.256577 34.132212
34.007913 33.883665 33.759458 33.635278 33.511111
33.888889 34.047506 34.206138 34.364798 34.523501 34.682259 34.841086 34.999992
35.158991 35.318089 35.477297 35.636620 35.796066 35.955634 36.115330 36.275149
36.435091 36.595147 36.755313 36.915573 37.075919 37.236327 37.396783 37.557258
37.717730 37.878164 38.038529 38.198783 38.358890 38.518797 38.678461 38.837821
38.996827 39.155410 39.313511 39.471053 39.627970 39.784177 39.939600 40.094147
40.247738 40.400275 40.551670 40.701820 40.850633 40.997999 41.143824 41.287995
41.430414 41.570966 41.709552 41.846057 41.980382 42.112413 42.242054 42.369192
42.493733 42.615572 42.734618 42.850769 42.963943 43.074044 43.180996 43.284712
43.385122 43.482149 43.575731 43.665798 43.752297 43.835169 43.914366 43.989840
44.061550 44.129456 44.193526 44.253726 44.310031 44.362414 44.410855 44.455335
44.495838 44.532349 44.564858 44.593353 44.617829 44.638276 44.654691 44.667070
44.675410 44.679709 44.679968 44.676186 44.668366 44.656510 44.640622 44.620707
44.596771 44.568823 44.536870 44.500926 44.461001 44.417112 44.369275 44.317512
44.261843 44.202296 44.138897 44.071683 44.000683 43.925943 43.847502 43.765410
43.679716 43.590479 43.497755 43.401613 43.302116 43.199343 43.093365 42.984269
42.872132 42.757051 42.639110 42.518410 42.395042 42.269114 42.140721 42.009973
41.876971 41.741826 41.604641 41.465529 41.324591 41.181942 41.037680 40.891919
40.744754 40.596295 40.446633 40.295874 40.144105 39.991423 39.837911 39.683660
39.528744 39.373249 39.217241 39.060796 38.903974 38.746845 38.589457 38.431873
38.274136 38.116298 37.958393 37.800468 37.642549 37.484673 37.326860 37.169141
37.011529 36.854047 36.696701 36.539509 36.382473 36.225601 36.068893 35.912352
35.755972 35.599752 35.443683 35.287758 35.131967 34.976300 34.820741 34.665281
34.509902 34.354590 34.199328 34.044100 33.888889
34.266667 34.457015 34.647380 34.837780 35.028232 35.218753 35.409357 35.600060
35.790873 35.981811 36.172881 36.364096 36.555457 36.746973 36.938642 37.130468
37.322442 37.514563 37.706816 37.899193 38.091672 38.284240 38.476865 38.669526
38.862183 39.054808 39.247352 39.439778 39.632026 39.824050 40.015782 40.207167
40.398125 40.588592 40.778479 40.967713 41.156194 41.343839 41.530542 41.716209
41.900726 42.083992 42.265884 42.446295 42.625097 42.802175 42.977397 43.150645
43.321782 43.490689 43.657226 43.821275 43.982696 44.141371 44.297164 44.449958
44.599623 44.746046 44.889103 45.028688 45.164684 45.296993 45.425506 45.550134
45.670780 45.787362 45.899794 46.008006 46.111921 46.211478 46.306613 46.397275
46.483408 46.564972 46.641921 46.714222 46.781838 46.844746 46.902914 46.956325
47.004958 47.048797 47.087828 47.122041 47.151424 47.175973 47.195679 47.210539
47.220550 47.225711 47.226021 47.221480 47.212091 47.197856 47.178781 47.154870
47.126133 47.092575 47.054210 47.011049 46.963109 46.910405 46.852961 46.790796
46.723941 46.652423 46.576279 46.495543 46.410262 46.320479 46.226251 46.127628
46.024678 45.917461 45.806057 45.690536 45.570986 45.447489 45.320144 45.189040
45.054289 44.915987 44.774255 44.629197 44.480941 44.329598 44.175302 44.018167
43.858333 43.695917 43.531060 43.363881 43.194521 43.023099 42.849753 42.674601
42.497776 42.319394 42.139582 41.958449 41.776118 41.592690 41.408281 41.222982
41.036903 40.850125 40.662749 40.474848 40.286511 40.097803 39.908803 39.719567
39.530162 39.340636 39.151046 38.961430 38.771837 38.582295 38.392844 38.203503
38.014305 37.825261 37.636395 37.447711 37.259225 37.070937 36.882854 36.694972
36.507291 36.319802 36.132500 35.945373 35.758411 35.571597 35.384919 35.198358
35.011897 34.825517 34.639199 34.452923 34.266667
34.644444 34.866526 35.088629 35.310773 35.532980 35.755267 35.977655 36.200159
36.422798 36.645582 36.868529 37.091644 37.314940 37.538417 37.762084 37.985933
38.209969 38.434176 38.658551 38.883073 39.107729 39.332489 39.557333 39.782220
40.007122 40.231986 40.456776 40.681427 40.905893 41.130098 41.353983 41.577463
41.800467 42.022898 42.244675 42.465687 42.685844 42.905024 43.123124 43.340015
43.555583 43.769689 43.982209 44.192997 44.401924 44.608834 44.813592 45.016039
45.216035 45.413419 45.608050 45.799763 45.988419 46.173857 46.355937 46.534502
46.709419 46.880536 47.047726 47.210847 47.369777 47.524386 47.674564 47.820188
47.961161 48.097373 48.228737 48.355157 48.476557 48.592855 48.703986 48.809881
48.910486 49.005743 49.095610 49.180040 49.259000 49.332452 49.400372 49.462731
49.519510 49.570689 49.616254 49.656191 49.690492 49.719146 49.742148 49.759492
49.771177 49.777200 49.777560 49.772259 49.761298 49.744681 49.722413 49.694501
49.660952 49.621777 49.576986 49.526597 49.470624 49.409089 49.342012 49.269424
49.191351 49.107832 49.018902 48.924609 48.824997 48.720127 48.610051 48.494843
48.374566 48.249307 48.119140 47.984165 47.844470 47.700164 47.551348 47.398145
47.240665 47.079042 46.913396 46.743872 46.570598 46.393725 46.213390 46.029750
45.842944 45.653136 45.460465 45.265097 45.067173 44.866856 44.664286 44.459624
44.253004 44.044582 43.834489 43.622872 43.409854 43.195576 42.980151 42.763709
42.546354 42.328207 42.109360 41.889923 41.669977 41.449620 41.228922 41.007970
40.786822 40.565553 40.344210 40.122857 39.901531 39.680284 39.459143 39.238149
39.017321 38.796690 38.576266 38.356070 38.136105 37.916384 37.696903 37.477668
37.258668 37.039901 36.821354 36.603018 36.384875 36.166912 35.949107 35.731444
35.513898 35.296449 35.079073 34.861747 34.644444
35.022222 35.276042 35.529885 35.783778 36.037742 36.291803 36.545979 36.800295
37.054765 37.309411 37.564242 37.819277 38.074520 38.329982 38.585663 38.841567
39.097685 39.354017 39.610543 39.867255 40.124122 40.381129 40.638234 40.895411
41.152607 41.409784 41.666878 41.923839 42.180590 42.437070 42.693187 42.948866
43.204005 43.458514 43.712278 43.965195 44.217134 44.467984 44.717600 44.965857
45.212601 45.457697 45.700978 45.942301 46.181490 46.418393 46.652829 46.884640
47.113641 47.339668 47.562535 47.782078 47.998111 48.210472 48.418977 48.623468
48.823769 49.019727 49.211174 49.397967 49.579947 49.756983 49.928928 50.095663
50.257055 50.412998 50.563374 50.708090 50.847045 50.980158 51.107342 51.228532
51.343655 51.452657 51.555479 51.652079 51.742409 51.826438 51.904129 51.975459
52.040400 52.098935 52.151045 52.196718 52.235942 52.268708 52.295010 52.314843
52.328202 52.335088 52.335498 52.329434 52.316899 52.297896 52.272430 52.240508
52.202141 52.157336 52.106109 52.048474 51.984452 51.914061 51.837331 51.754287
51.664968 51.569407 51.467654 51.359751 51.245762 51.125740 50.999760 50.867890
50.730219 50.586827 50.437818 50.283287 50.123354 49.958124 49.787734 49.612303
49.431980 49.246897 49.057215 48.863076 48.664652 48.462095 48.255583 48.045276
47.831358 47.613991 47.393364 47.169640 46.943008 46.713631 46.481696 46.247360
46.010807 45.772189 45.531682 45.289430 45.045601 44.800329 44.553771 44.306051
44.057313 43.807671 43.557256 43.306167 43.054525 42.802414 42.549941 42.297179
42.044220 41.791124 41.537970 41.284806 41.031698 40.778681 40.525809 40.273107
40.020616 39.768352 39.516343 39.264597 39.013133 38.761949 38.511055 38.260442
38.010112 37.760050 37.510249 37.260691 37.011363 36.762241 36.513308 36.264536
36.015904 35.767384 35.518949 35.270571 35.022222
35.400000 35.685560 35.971148 36.256792 36.542521 36.828358 37.114333 37.400465
37.686780 37.973294 38.260029 38.546994 38.834207 39.121671 39.409396 39.697377
39.985617 40.274100 40.562824 40.851760 41.140896 41.430192 41.719625 42.009144
42.298711 42.588263 42.877751 43.167094 43.456232 43.745070 44.033531 44.321506
44.608903 44.895599 45.181486 45.466426 45.750297 46.032945 46.314235 46.593998
46.872088 47.148322 47.422541 47.694553 47.964189 48.231247 48.495550 48.756890
49.015084 49.269921 49.521215 49.768753 50.012350 50.251796 50.486909 50.717482
50.943341 51.164288 51.380155 51.590758 51.795940 51.995528 52.189379 52.377336
52.559271 52.735044 52.904540 53.067637 53.224239 53.374238 53.517554 53.654097
53.783802 53.906595 54.022423 54.131228 54.232970 54.327602 54.415095 54.495414
54.568538 54.634442 54.693112 54.744530 54.788687 54.825572 54.855179 54.877502
54.892539 54.900287 54.900747 54.893919 54.879806 54.858413 54.829743 54.793806
54.750608 54.700164 54.642484 54.577589 54.505495 54.426228 54.339813 54.246287
54.145680 54.038041 53.923412 53.801854 53.673421 53.538190 53.396226 53.247623
53.092463 52.930853 52.762893 52.588708 52.408411 52.222146 52.030042 51.832259
51.628940 51.420260 51.206376 50.987475 50.763727 50.535329 50.302458 50.065322
49.824103 49.579013 49.330238 49.077993 48.822462 48.563861 48.302371 48.038201
47.771531 47.502561 47.231462 46.958428 46.683617 46.407213 46.129362 45.850235
45.569966 45.288711 45.006590 44.723745 44.440279 44.156320 43.871958 43.587304
43.302432 43.017438 42.732383 42.447347 42.162378 41.877541 41.592871 41.308419
41.024208 40.740277 40.456637 40.173314 39.890312 39.607645 39.325307 39.043303
38.761619 38.480252 38.199181 37.918395 37.637870 37.357586 37.077516 36.797635
36.517913 36.238320 35.958825 35.679396 35.400000
35.777778 36.095081 36.412416 36.729816 37.047312 37.364934 37.682710 38.000670
38.318836 38.637236 38.955883 39.274802 39.594001 39.913495 40.233285 40.553379
40.873767 41.194450 41.515405 41.836623 42.158070 42.479725 42.801539 43.123479
43.445482 43.767502 44.089458 44.411290 44.732903 45.054218 45.375124 45.695528
46.015299 46.334327 46.652466 46.969589 47.285531 47.600151 47.913267 48.224722
48.534320 48.841888 49.147218 49.450125 49.750387 50.047811 50.342166 50.633250
50.920828 51.204690 51.484600 51.760348 52.031695 52.298436 52.560337 52.817194
53.068783 53.314911 53.555361 53.789953 54.018485 54.240789 54.456681 54.666009
54.868606 55.064339 55.253059 55.434650 55.608985 55.775967 55.935486 56.087462
56.231806 56.368453 56.497332 56.618392 56.731578 56.836851 56.934170 57.023507
57.104832 57.178125 57.243365 57.300541 57.349638 57.390649 57.423565 57.448382
57.465098 57.473710 57.474219 57.466625 57.450932 57.427142 57.395264 57.355301
57.307266 57.251168 57.187024 57.114847 57.034663 56.946492 56.850367 56.746318
56.634389 56.514621 56.387071 56.251792 56.108859 55.958337 55.800318 55.634885
55.462148 55.282207 55.095191 54.901220 54.700441 54.492991 54.279039 54.058738
53.832274 53.599817 53.361569 53.117714 52.868468 52.614027 52.354617 52.090441
51.821735 51.548707 51.271596 50.990612 50.705995 50.417952 50.126723 49.832508
49.535540 49.236014 48.934151 48.630137 48.324183 48.016460 47.707166 47.396458
47.084518 46.771489 46.457536 46.142785 45.827384 45.511443 45.195092 44.878424
44.561553 44.244554 43.927524 43.610523 43.293630 42.976892 42.660372 42.344101
42.028128 41.712472 41.397168 41.082222 40.767657 40.453469 40.139669 39.826244
39.513194 39.200499 38.888151 38.576122 38.264395 37.952939 37.641731 37.330735
37.019922 36.709255 36.398701 36.088220 35.777778
36.155556 36.504604 36.853689 37.202847 37.552115 37.901524 38.251112 38.600904
38.950936 39.301228 39.651809 40.002694 40.353905 40.705448 41.057338 41.409571
41.762153 42.115068 42.468312 42.821854 43.175681 43.529746 43.884022 44.238449
44.592982 44.947546 45.302081 45.656492 46.010704 46.364602 46.718093 47.071044
47.423344 47.774840 48.125401 48.474856 48.823056 49.169811 49.514954 49.858276
50.199595 50.538686 50.875351 51.209350 51.540473 51.868468 52.193115 52.514154
52.831356 53.144457 53.453224 53.757393 54.056730 54.350972 54.639892 54.923233
55.200774 55.472270 55.737512 55.996267 56.248342 56.493521 56.731628 56.962469
57.185883 57.401699 57.609778 57.809969 58.002153 58.186204 58.362022 58.529501
58.688563 58.839120 58.981111 59.114468 59.239145 59.355090 59.462269 59.560645
59.650194 59.730890 59.802718 59.865660 59.919708 59.964849 60.001080 60.028394
60.046790 60.056267 60.056824 60.048462 60.031185 60.004997 59.969901 59.925908
59.873023 59.811262 59.740634 59.661162 59.572861 59.475763 59.369892 59.255290
59.131990 59.000050 58.859517 58.710461 58.552947 58.387063 58.212891 58.030541
57.840110 57.641732 57.435525 57.221643 57.000226 56.771450 56.535474 56.292496
56.042694 55.786285 55.523464 55.254467 54.979502 54.698818 54.412635 54.121214
53.824782 53.523604 53.217914 52.907979 52.594032 52.276340 51.955130 51.630665
51.303166 50.972886 50.640035 50.304855 49.967543 49.628326 49.287386 48.944935
48.601138 48.256186 47.910229 47.563439 47.215946 46.867904 46.519424 46.170639
45.821643 45.472550 45.123434 44.774392 44.425481 44.076778 43.728326 43.380185
43.032382 42.684961 42.337935 41.991335 41.645160 41.299429 40.954130 40.609268
40.264825 39.920793 39.577147 39.233869 38.890928 38.548299 38.205944 37.863834
37.521927 37.180187 36.838573 36.497043 36.155556
36.533333 36.914128 37.294964 37.675883 38.056924 38.438127 38.819528 39.201165
39.583068 39.965270 40.347794 40.730670 41.113909 41.497534 41.881548 42.265963
42.650769 43.035971 43.421543 43.807477 44.193734 44.580291 44.967092 45.354101
45.741242 46.128461 46.515666 46.902784 47.289701 47.676327 48.062526 48.448188
48.833156 49.217298 49.600438 49.982423 50.363053 50.742157 51.119514 51.494933
51.868176 52.239032 52.607246 52.972591 53.334798 53.693627 54.048797 54.400059
54.747122 55.089731 55.427593 55.760450 56.088010 56.410016 56.726182 57.036258
57.339967 57.637070 57.927305 58.210446 58.486249 58.754507 59.014996 59.267531
59.511910 59.747969 59.975532 60.194460 60.404599 60.605834 60.798037 60.981114
61.154960 61.319501 61.474656 61.620367 61.756573 61.883232 62.000298 62.107743
62.205534 62.293654 62.372079 62.440801 62.499804 62.549084 62.588632 62.618447
62.638525 62.648866 62.649470 62.640339 62.621476 62.592882 62.554567 62.506532
62.448791 62.381351 62.304229 62.217438 62.121004 62.014947 61.899303 61.774102
61.639394 61.495222 61.341653 61.178744 61.006582 60.825241 60.634830 60.435444
60.227215 60.010261 59.784736 59.550783 59.308580 59.058294 58.800127 58.534267
58.260942 57.980357 57.692763 57.398383 57.097483 56.790303 56.477123 56.158192
55.833801 55.504206 55.169701 54.830545 54.487032 54.139421 53.788000 53.433022
53.074768 52.713478 52.349425 51.982835 51.613964 51.243023 50.870252 50.495843
50.120016 49.742945 49.364828 48.985819 48.606095 48.225789 47.845057 47.464010
47.082783 46.701467 46.320175 45.938980 45.557975 45.177212 44.796766 44.416674
44.036990 43.657736 43.278951 42.900640 42.522829 42.145509 41.768692 41.392360
41.016511 40.641117 40.266166 39.891623 39.517464 39.143651 38.770152 38.396922
38.023924 37.651111 37.278440 36.905863 36.533333
36.911111 37.323652 37.736239 38.148918 38.561736 38.974733 39.387956 39.801440
40.215227 40.629347 41.043836 41.458714 41.874011 42.289737 42.705914 43.122538
43.539621 43.957146 44.375112 44.793486 45.212252 45.631362 46.050784 46.470449
46.890309 47.310275 47.730279 48.150210 48.569981 48.989459 49.408533 49.827048
50.244871 50.661823 51.077747 51.492441 51.905726 52.317376 52.727191 53.134922
53.540347 53.943198 54.343234 54.740168 55.133744 55.523660 55.909646 56.291389
56.668610 57.040989 57.408243 57.770049 58.126124 58.476149 58.819845 59.156902
59.487050 59.809992 60.125474 60.433216 60.732981 61.024512 61.307595 61.581996
61.847526 62.103978 62.351188 62.588978 62.817209 63.035731 63.244431 63.443186
63.631907 63.810495 63.978882 64.136994 64.284780 64.422185 64.549175 64.665710
64.771768 64.867324 64.952364 65.026871 65.090840 65.144261 65.187132 65.219448
65.241209 65.252415 65.253065 65.243163 65.222710 65.191710 65.150166 65.098088
65.035478 64.962352 64.878716 64.784593 64.679997 64.564959 64.439502 64.303671
64.157501 64.001052 63.834375 63.657550 63.470647 63.273767 63.067002 62.850479
62.624312 62.388655 62.143649 61.889475 61.626299 61.354330 61.073759 60.784824
60.487739 60.182765 59.870140 59.550147 59.223039 58.889119 58.548656 58.201962
57.849318 57.491045 57.127426 56.758788 56.385413 56.007623 55.625699 55.239955
54.850660 54.458120 54.062591 53.664362 53.263672 52.860794 52.455947 52.049383
51.641301 51.231930 50.821447 50.410058 49.997916 49.585204 49.172053 48.758619
48.345013 47.931368 47.517771 47.104333 46.691121 46.278225 45.865690 45.453586
45.041943 44.630809 44.220199 43.810144 43.400642 42.991711 42.583335 42.175516
41.768230 41.361466 40.955189 40.549376 40.143988 39.738992 39.334340 38.929995
38.525904 38.122022 37.718297 37.314678 36.911111
37.288889 37.733173 38.177509 38.621948 39.066541 39.511337 39.956381 40.401722
40.847398 41.293452 41.739913 42.186820 42.634190 43.082053 43.530416 43.979298
44.428690 44.878599 45.329002 45.779892 46.231226 46.682980 47.135094 47.587526
48.040193 48.493034 48.945943 49.398837 49.851587 50.304087 50.756181 51.207740
51.658583 52.108556 52.557450 53.005087 53.451234 53.895685 54.338183 54.778498
55.216349 55.651485 56.083603 56.512431 56.937649 57.358967 57.776051 58.188599
58.596265 58.998740 59.395674 59.786753 60.171628 60.549989 60.921491 61.285834
61.642684 61.991753 62.332728 62.665338 62.989290 63.304338 63.610215 63.906700
64.193556 64.470590 64.737595 64.994408 65.240853 65.476796 65.702091 65.916632
66.120303 66.313021 66.494697 66.665271 66.824676 66.972872 67.109810 67.235466
67.349807 67.452818 67.544479 67.624785 67.693723 67.751291 67.797485 67.832304
67.855748 67.867818 67.868514 67.857839 67.835795 67.802383 67.757610 67.701478
67.633996 67.555169 67.465012 67.363535 67.250761 67.126709 66.991414 66.844904
66.687232 66.518440 66.338600 66.147773 65.946053 65.733525 65.510308 65.276512
65.032284 64.777763 64.513126 64.238540 63.954215 63.660344 63.357169 63.044913
62.723845 62.394212 62.056312 61.710415 61.356838 60.995871 60.627849 60.253074
59.871893 59.484616 59.091598 58.693149 58.289625 57.881333 57.468623 57.051796
56.631191 56.207094 55.779830 55.349670 54.916920 54.481829 54.044683 53.605708
53.165166 52.723261 52.280227 51.836244 51.391521 50.946210 50.500496 50.054506
49.608397 49.162273 48.716266 48.270456 47.824950 47.379809 46.935114 46.490907
46.047248 45.604158 45.161681 44.719819 44.278597 43.838005 43.398050 42.958709
42.519975 42.081814 41.644206 41.207108 40.770490 40.334301 39.898503 39.463038
39.027861 38.592913 38.158141 37.723485 37.288889
37.666667 38.142690 38.618771 39.094966 39.571333 40.047924 40.524796 41.001993
41.479569 41.957561 42.436016 42.914961 43.394435 43.874453 44.355045 44.836212
45.317969 45.800303 46.283215 46.766673 47.250662 47.735129 48.220042 48.705326
49.190926 49.676745 50.162707 50.648687 51.134586 51.620251 52.105558 52.590328
53.074408 53.557591 54.039697 54.520489 54.999761 55.477247 55.952713 56.425868
56.896452 57.364147 57.828671 58.289683 58.746881 59.199905 59.648436 60.092100
60.530567 60.963454 61.390423 61.811090 62.225116 62.632120 63.031769 63.423693
63.807569 64.183045 64.549816 64.907551 65.255968 65.594765 65.923686 66.242459
66.550861 66.848652 67.135640 67.411622 67.676438 67.929919 68.171937 68.402354
68.621074 68.827989 69.023028 69.206111 69.377190 69.536206 69.683130 69.817924
69.940570 70.051045 70.149342 70.235448 70.309361 70.371077 70.420596 70.457918
70.483045 70.495977 70.496718 70.485269 70.461631 70.425808 70.377800 70.317614
70.245250 70.160718 70.064023 69.955182 69.834205 69.701120 69.555947 69.398728
69.229497 69.048316 68.855234 68.650338 68.433700 68.205432 67.965634 67.714446
67.451999 67.178467 66.894010 66.598837 66.293141 65.977165 65.651134 65.315325
64.969993 64.615445 64.251964 63.879885 63.499513 63.111204 62.715281 62.312118
61.902048 61.485455 61.062678 60.634105 60.200075 59.760971 59.317125 58.868914
58.416657 57.960714 57.501390 57.039027 56.573908 56.106351 55.636618 55.165000
54.691733 54.217083 53.741257 53.264492 52.786969 52.308895 51.830423 51.351733
50.872950 50.394226 49.915660 49.437376 48.959449 48.481980 48.005018 47.528641
47.052877 46.577781 46.103364 45.629659 45.156660 44.684382 44.212805 43.741926
43.271712 42.802148 42.333189 41.864806 41.396946 40.929570 40.462620 39.996045
39.529784 39.063779 38.597967 38.132284 37.666667
38.044444 38.552200 39.060018 39.567965 40.076099 40.584486 41.093179 41.602240
42.111715 42.621660 43.132113 43.643122 44.154712 44.666923 45.179766 45.693267
46.207423 46.722247 47.237715 47.753824 48.270530 48.787812 49.305604 49.823861
50.342494 50.861436 51.380570 51.899805 52.418994 52.938019 53.456705 53.974904
54.492412 55.009050 55.524582 56.038800 56.551437 57.062254 57.570954 58.077268
58.580871 59.081467 59.578703 60.072259 60.561760 61.046864 61.527177 62.002342
62.471951 62.935638 63.392987 63.843627 64.287144 64.723169 65.151294 65.571162
65.982379 66.384602 66.777462 67.160638 67.533787 67.896618 68.248820 68.590135
68.920286 69.239053 69.546196 69.841530 70.124856 70.396024 70.654872 70.901284
71.135133 71.356335 71.564793 71.760450 71.943238 72.113119 72.270050 72.414009