# vtk DataFile Version 3.0
Steady-state temperature (Jacobi)
ASCII
DATASET STRUCTURED_POINTS
DIMENSIONS 181 181 1
ORIGIN 0.0 0.0 0.0
SPACING 0.05 0.05 1.0
POINT_DATA 32761
SCALARS Temperature float 1
LOOKUP_TABLE default
32.000000 32.000000 32.000000 32.000000 32.000000 32.000000 32.000000 32.000000
32.000000 32.000000 32.000000 32.000000 32.000000 32.000000 32.000000 32.000000
32.000000 32.000000 32.000000 32.000000 32.000000 32.000000 32.000000 32.000000
32.000000 32.000000 32.000000 32.000000 32.000000 32.000000 32.000000 32.000000
32.000000 32.000000 32.000000 32.000000 32.000000 32.000000 32.000000 32.000000
32.000000 32.000000 32.000000 32.000000 32.000000 32.000000 32.000000 32.000000
32.000000 32.000000 32.000000 32.000000 32.000000 32.000000 32.000000 32.000000
32.000000 32.000000 32.000000 32.000000 32.000000 32.000000 32.000000 32.000000
32.000000 32.000000 32.000000 32.000000 32.000000 32.000000 32.000000 32.000000
32.000000 32.000000 32.000000 32.000000 32.000000 32.000000 32.000000 32.000000
32.000000 32.000000 32.000000 32.000000 32.000000 32.000000 32.000000 32.000000
32.000000 32.000000 32.000000 32.000000 32.000000 32.000000 32.000000 32.000000
32.000000 32.000000 32.000000 32.000000 32.000000 32.000000 32.000000 32.000000
32.000000 32.000000 32.000000 32.000000 32.000000 32.000000 32.000000 32.000000
32.000000 32.000000 32.000000 32.000000 32.000000 32.000000 32.000000 32.000000
32.000000 32.000000 32.000000 32.000000 32.000000 32.000000 32.000000 32.000000
32.000000 32.000000 32.000000 32.000000 32.000000 32.000000 32.000000 32.000000
32.000000 32.000000 32.000000 32.000000 32.000000 32.000000 32.000000 32.000000
32.000000 32.000000 32.000000 32.000000 32.000000 32.000000 32.000000 32.000000
32.000000 32.000000 32.000000 32.000000 32.000000 32.000000 32.000000 32.000000
32.000000 32.000000 32.000000 32.000000 32.000000 32.000000 32.000000 32.000000
32.000000 32.000000 32.000000 32.000000 32.000000 32.000000 32.000000 32.000000
32.000000 32.000000 32.000000 32.000000 32.000000
32.377778 32.396218 32.414677 32.433173 32.451722 32.470346 32.489057 32.507879
32.526821 32.545908 32.565146 32.584561 32.604156 32.623956 32.643962 32.664199
32.684663 32.705381 32.726343 32.747577 32.769068 32.790843 32.812884 32.835217
32.857820 32.880716 32.903879 32.927332 32.951044 32.975036 32.999273 33.023774
33.048500 33.073468 33.098635 33.124016 33.149563 33.175290 33.201147 33.227144
33.253227 33.279405 33.305621 33.331883 33.358132 33.384372 33.410544 33.436650
33.462629 33.488482 33.514149 33.539629 33.564860 33.589843 33.614516 33.638879
33.662871 33.686492 33.709683 33.732445 33.754721 33.776510 33.797760 33.818472
33.838594 33.858128 33.877029 33.895296 33.912888 33.929807 33.946014 33.961512
33.976267 33.990282 34.003526 34.016004 34.027687 34.038581 34.048663 34.057936
34.066382 34.074004 34.080786 34.086733 34.091832 34.096086 34.099486 34.102035
34.103727 34.104563 34.104542 34.103664 34.101930 34.099339 34.095897 34.091602
34.086461 34.080473 34.073649 34.065986 34.057499 34.048186 34.038064 34.027130
34.015407 34.002891 33.989608 33.975556 33.960764 33.945230 33.928988 33.912036
33.894411 33.876114 33.857185 33.837623 33.817476 33.796742 33.775471 33.753664
33.731374 33.708601 33.685402 33.661777 33.637786 33.613428 33.588764 33.563796
33.538585 33.513132 33.487498 33.461683 33.435751 33.409699 33.383590 33.357420
33.331250 33.305077 33.278959 33.252889 33.226926 33.201060 33.175347 33.149774
33.124394 33.099195 33.074223 33.049464 33.024962 33.000700 32.976719 32.952998
32.929574 32.906427 32.883587 32.861032 32.838790 32.816835 32.795193 32.773835
32.752783 32.732007 32.711525 32.691307 32.671365 32.651671 32.632230 32.613016
32.594030 32.575245 32.556659 32.538246 32.520000 32.501895 32.483923 32.466059
32.448291 32.430596 32.412959 32.395358 32.377778
32.755556 32.792451 32.829384 32.866388 32.903504 32.940762 32.978205 33.015856
33.053764 33.091944 33.130447 33.169282 33.208501 33.248105 33.288149 33.328626
33.369589 33.411026 33.452989 33.495456 33.538481 33.582031 33.626159 33.670825
33.716078 33.761870 33.808248 33.855154 33.902632 33.950616 33.999147 34.048150
34.097662 34.147599 34.197995 34.248758 34.299918 34.351375 34.403155 34.455151
34.507385 34.559745 34.612247 34.664776 34.717343 34.769829 34.822242 34.874459
34.926486 34.978200 35.029601 35.080567 35.131097 35.181068 35.230479 35.279209
35.327256 35.374503 35.420946 35.466472 35.511080 35.554662 35.597215 35.638639
35.678933 35.718002 35.755847 35.792381 35.827606 35.861442 35.893893 35.924887
35.954429 35.982456 36.008973 36.033923 36.057315 36.079099 36.099283 36.117825
36.134733 36.149973 36.163552 36.175442 36.185650 36.194155 36.200962 36.206058
36.209445 36.211117 36.211076 36.209320 36.205848 36.200669 36.193778 36.185190
36.174899 36.162926 36.149264 36.133942 36.116952 36.098329 36.078065 36.056201
36.032730 36.007702 35.981109 35.953007 35.923391 35.892326 35.859805 35.825903
35.790613 35.754019 35.716115 35.676992 35.636648 35.595179 35.552585 35.508969
35.464332 35.418783 35.372325 35.325071 35.277025 35.228305 35.178913 35.128971
35.078482 35.027569 34.976233 34.924598 34.872664 34.820554 34.768265 34.715921
34.663512 34.611161 34.558855 34.506713 34.454718 34.402984 34.351490 34.300342
34.249518 34.199117 34.149111 34.099593 34.050529 34.002005 33.953984 33.906543
33.859641 33.813347 33.767615 33.722507 33.677974 33.634066 33.590735 33.548021
33.505873 33.464324 33.423319 33.382884 33.342963 33.303574 33.264659 33.226229
33.188227 33.150653 33.113454 33.076624 33.040107 33.003891 32.967925 32.932189
32.896634 32.861234 32.825943 32.790731 32.755556
33.133333 33.188713 33.244145 33.299692 33.355397 33.411327 33.467520 33.524046
33.580933 33.638257 33.696035 33.754346 33.813196 33.872667 33.932754 33.993539
34.055005 34.117235 34.180201 34.243983 34.308541 34.373954 34.440168 34.507260
34.575163 34.643951 34.713542 34.784006 34.855251 34.927339 35.000165 35.073786
35.148086 35.223114 35.298742 35.375015 35.451791 35.529109 35.606818 35.684949
35.763341 35.842020 35.920817 35.999751 36.078646 36.157517 36.236182 36.314651
36.392738 36.470448 36.547597 36.624184 36.700024 36.775116 36.849276 36.922501
36.994613 37.065607 37.135310 37.203717 37.270664 37.336146 37.400007 37.462245
37.522713 37.581410 37.638200 37.693086 37.745941 37.796771 37.845462 37.892020
37.936344 37.978443 38.018225 38.055702 38.090794 38.123512 38.153791 38.181639
38.207002 38.229890 38.250258 38.268115 38.283426 38.296199 38.306409 38.314062
38.319143 38.321654 38.321591 38.318954 38.313748 38.305970 38.295635 38.282737
38.267301 38.249320 38.228829 38.205817 38.180332 38.152362 38.121963 38.089125
38.053915 38.016322 37.976425 37.934214 37.889780 37.843114 37.794320 37.743389
37.690438 37.635460 37.578584 37.519805 37.459263 37.396957 37.333036 37.267501
37.200511 37.132070 37.062345 36.991339 36.919229 36.846018 36.771887 36.696840
36.621061 36.544553 36.467503 36.389910 36.311963 36.233656 36.155177 36.076517
35.997860 35.919192 35.840691 35.762338 35.684305 35.606567 35.529287 35.452434
35.376162 35.300432 35.225390 35.150988 35.077362 35.004458 34.932399 34.861125
34.790747 34.721199 34.652579 34.584816 34.517994 34.452039 34.387021 34.322863
34.259621 34.197215 34.135690 34.074961 34.015061 33.955907 33.897516 33.839806
33.782783 33.726363 33.670544 33.615243 33.560446 33.506073 33.452100 33.398451
33.345091 33.291950 33.238985 33.186130 33.133333
33.511111 33.585016 33.658996 33.733119 33.807469 33.882100 33.957106 34.032529
34.108468 34.184952 34.262086 34.339885 34.418457 34.497802 34.578031 34.659129
34.741205 34.824232 34.908317 34.993415 35.079632 35.166907 35.255343 35.344860
35.435558 35.527340 35.620299 35.714321 35.809494 35.905686 36.002978 36.101221
36.200487 36.300611 36.401657 36.503446 36.606031 36.709219 36.813054 36.917330
37.022084 37.127095 37.232393 37.337747 37.443180 37.548452 37.653578 37.758315
37.862670 37.966397 38.069497 38.171723 38.273074 38.373304 38.472408 38.570145
38.666509 38.761264 38.854405 38.945705 39.035159 39.122551 39.207878 39.290934
39.371722 39.450049 39.525918 39.599153 39.669761 39.737580 39.802620 39.864735
39.923937 39.980097 40.033229 40.083221 40.130086 40.173727 40.214161 40.251304
40.285172 40.315697 40.342894 40.366708 40.387152 40.404185 40.417818 40.428023
40.434807 40.438156 40.438073 40.434557 40.427606 40.417234 40.403435 40.386235
40.365625 40.341646 40.314284 40.283595 40.249564 40.212259 40.171665 40.127865
40.080842 40.030696 39.977411 39.921101 39.861753 39.799495 39.734317 39.666365
39.595629 39.522271 39.446287 39.367852 39.286965 39.203818 39.118410 39.030949
38.941438 38.850094 38.756922 38.662152 38.565790 38.468073 38.369007 38.268838
38.167568 38.065448 37.962478 37.858909 37.754740 37.650220 37.545341 37.440351
37.335236 37.230237 37.125333 37.020758 36.916483 36.812732 36.709466 36.606900
36.504986 36.403923 36.303657 36.204371 36.106001 36.008718 35.912448 35.817344
35.723324 35.630526 35.538860 35.448447 35.359190 35.271192 35.184350 35.098751
35.014288 34.931028 34.848862 34.767841 34.687853 34.608932 34.530965 34.453970
34.377835 34.302562 34.228040 34.154257 34.081105 34.008557 33.936511 33.864926
33.793704 33.722794 33.652104 33.581571 33.511111
33.888889 33.981378 34.073956 34.166724 34.259759 34.353171 34.447023 34.541433
34.636449 34.732196 34.828704 34.926106 35.024411 35.123757 35.224136 35.325684
35.428376 35.532348 35.637554 35.744130 35.852007 35.961318 36.071974 36.184103
36.297594 36.412568 36.528894 36.646685 36.765786 36.886305 37.008064 37.131160
37.255397 37.380860 37.507332 37.634888 37.763293 37.892611 38.022587 38.153276
38.284407 38.416023 38.547841 38.679892 38.811883 38.943835 39.075446 39.206729
39.337377 39.467394 39.596471 39.724608 39.851494 39.977126 40.101197 40.223700
40.344337 40.463098 40.579695 40.694119 40.806093 40.915613 41.022413 41.126492
41.227603 41.325747 41.420695 41.512451 41.600805 41.685767 41.767146 41.844955
41.919023 41.989367 42.055834 42.118444 42.177066 42.231720 42.282292 42.328804
42.371161 42.409383 42.443395 42.473212 42.498777 42.520103 42.537151 42.549928
42.558411 42.562604 42.562500 42.558098 42.549407 42.536422 42.519167 42.497633
42.471861 42.441838 42.407621 42.369195 42.326634 42.279921 42.229148 42.174297
42.115479 42.052675 41.986017 41.915487 41.841237 41.763250 41.681698 41.596569
41.508055 41.416147 41.321055 41.222777 41.121542 41.017349 40.910449 40.800843
40.688797 40.574317 40.457683 40.338903 40.218269 40.095791 39.971769 39.846212
39.719428 39.591423 39.462510 39.332690 39.202275 39.071262 38.939962 38.808362
38.676769 38.545161 38.413837 38.282766 38.152234 38.022200 37.892939 37.764397
37.636833 37.510183 37.384688 37.260273 37.137159 37.015261 36.894781 36.775621
36.657965 36.541703 36.426998 36.313733 36.202047 36.091816 35.983157 35.875939
35.770259 35.665981 35.563179 35.461713 35.361637 35.262809 35.165263 35.068855
34.973600 34.879357 34.786119 34.693750 34.602224 34.511409 34.421264 34.331661
34.242543 34.153793 34.065335 33.977063 33.888889
34.266667 34.377807 34.489062 34.600532 34.712345 34.824583 34.937386 35.050820
35.165032 35.280069 35.396086 35.513108 35.631297 35.750656 35.871348 35.993355
36.116840 36.241762 36.368283 36.496337 36.626083 36.757428 36.890530 37.025267
37.161792 37.299957 37.439904 37.581462 37.724763 37.869608 38.016119 38.164073
38.313578 38.464386 38.616593 38.769928 38.924473 39.079935 39.236383 39.393503
39.551349 39.709593 39.868275 40.027049 40.185945 40.344606 40.503050 40.660910
40.818196 40.974537 41.129932 41.284011 41.436767 41.587831 41.737194 41.884491
42.029713 42.172504 42.312854 42.450422 42.585199 42.716859 42.845397 42.970506
43.092185 43.210147 43.324397 43.434669 43.540974 43.643069 43.740970 43.834458
43.923553 44.008061 44.088004 44.163214 44.233713 44.299357 44.360169 44.416029
44.466959 44.512858 44.553750 44.589554 44.620289 44.645896 44.666390 44.681731
44.691929 44.696964 44.696840 44.691555 44.681109 44.665518 44.644776 44.618921
44.587938 44.551888 44.510751 44.464606 44.413433 44.357332 44.296280 44.230399
44.159665 44.084224 44.004053 43.919322 43.830009 43.736307 43.638200 43.535905
43.429409 43.318955 43.204533 43.086409 42.964581 42.839338 42.710679 42.578915
42.444053 42.306419 42.166023 42.023211 41.877992 41.730725 41.581421 41.430448
41.277814 41.123895 40.968696 40.812593 40.655586 40.498051 40.339979 40.181743
40.023323 39.865083 39.706993 39.549405 39.392277 39.235945 39.080355 38.925826
38.772289 38.620045 38.469009 38.319460 38.171302 38.024790 37.879813 37.736602
37.595035 37.455316 37.317312 37.181203 37.046844 36.914388 36.783683 36.654855
36.527745 36.402454 36.278817 36.156910 36.036563 35.917828 35.800535 35.684709
35.570183 35.456957 35.344866 35.233891 35.123869 35.014759 34.906405 34.798748
34.691640 34.585001 34.478695 34.372625 34.266667
34.644444 34.774324 34.904329 35.034603 35.165253 35.296435 35.428238 35.560829
35.694275 35.828752 35.964305 36.101118 36.239208 36.378767 36.519784 36.662454
36.806739 36.952833 37.100671 37.250443 37.402057 37.555697 37.711240 37.868866
38.028420 38.190072 38.353638 38.519278 38.686777 38.856281 39.027546 39.200706
39.375485 39.552002 39.729955 39.909447 40.090148 40.272145 40.455084 40.639035
40.823624 41.008903 41.194479 41.380390 41.566226 41.752013 41.937326 42.122181
42.306144 42.489221 42.670975 42.851401 43.030066 43.206958 43.381649 43.554123
43.723962 43.891150 44.055280 44.216340 44.373939 44.528068 44.678357 44.824801
44.967053 45.105114 45.238664 45.367709 45.491954 45.611413 45.725820 45.835193
45.939295 46.038148 46.131543 46.219507 46.301858 46.378624 46.449652 46.514968
46.574446 46.628111 46.675861 46.717719 46.753606 46.783542 46.807470 46.825404
46.837311 46.843197 46.843052 46.836876 46.824680 46.806457 46.782240 46.752016
46.715841 46.673696 46.625660 46.571711 46.511950 46.446353 46.375047 46.298005
46.215381 46.127148 46.033488 45.934375 45.830019 45.720398 45.605751 45.486060
45.361592 45.232335 45.098585 44.960336 44.817911 44.671310 44.520882 44.366632
44.208934 44.047797 43.883615 43.716402 43.546568 43.374128 43.199508 43.022720
42.844200 42.663959 42.482435 42.299635 42.115999 41.931523 41.746646 41.561354
41.376076 41.190787 41.005904 40.821388 40.637640 40.454607 40.272671 40.091762
39.912241 39.734020 39.557438 39.382389 39.209185 39.037706 38.868235 38.700637
38.535166 38.371671 38.210378 38.051123 37.894101 37.739138 37.586396 37.435694
37.287163 37.140614 36.996148 36.853572 36.712957 36.574106 36.437062 36.301628
36.167819 36.035439 35.904477 35.774741 35.646194 35.518651 35.392052 35.266219
35.141069 35.016438 34.892220 34.768263 34.644444
35.022222 35.170933 35.319798 35.468953 35.618567 35.768756 35.919703 36.071500
36.224345 36.378300 36.533574 36.690202 36.848400 37.008175 37.169745 37.333086
37.498419 37.665689 37.835113 38.006604 38.180376 38.356307 38.534605 38.715114
38.898031 39.083167 39.270708 39.460427 39.652500 39.846664 40.043079 40.241449
40.441917 40.644153 40.848284 41.053948 41.261252 41.469806 41.679697 41.890509
42.102310 42.314660 42.527609 42.740697 42.953958 43.166913 43.379583 43.591478
43.802603 44.012463 44.221054 44.427876 44.632917 44.835683 45.036156 45.233849
45.428743 45.620363 45.808691 45.993271 46.174087 46.350705 46.523113 46.690903
46.854069 47.012232 47.165394 47.313205 47.455673 47.592482 47.723648 47.848884
47.968215 48.081387 48.188429 48.289118 48.383486 48.471345 48.552726 48.627469
48.695608 48.757012 48.811709 48.859598 48.900703 48.934949 48.962355 48.982871
48.996508 49.003242 49.003077 48.996014 48.982047 48.961202 48.933468 48.898893
48.857461 48.809245 48.754223 48.692495 48.624035 48.548971 48.467273 48.379101
48.284421 48.183426 48.076083 47.962615 47.842994 47.717476 47.586036 47.448963
47.306241 47.158189 47.004798 46.846422 46.683058 46.515090 46.342522 46.165768
45.984839 45.800172 45.611785 45.420137 45.225248 45.027597 44.827203 44.624558
44.419681 44.213073 44.004745 43.795202 43.584450 43.372991 43.160819 42.948430
42.735807 42.523432 42.311274 42.099799 41.888958 41.679200 41.470454 41.263147
41.057190 40.852983 40.650418 40.449864 40.251196 40.054751 39.860386 39.668406
39.478650 39.291389 39.106445 38.924057 38.744033 38.566574 38.391479 38.218913
38.048665 37.880866 37.715298 37.552058 37.390922 37.231954 37.074929 36.919879
36.766578 36.615027 36.465004 36.316481 36.169241 36.023227 35.878232 35.734173
35.590852 35.448162 35.305920 35.163996 35.022222
35.400000 35.567656 35.735476 35.903645 36.072302 36.241651 36.411806 36.582985
36.755275 36.928906 37.103936 37.280602 37.458931 37.639167 37.821303 38.005586
38.191973 38.380712 38.571723 38.765250 38.961178 39.159743 39.360791 39.564550
39.770826 39.979837 40.191348 40.405563 40.622209 40.841472 41.063040 41.287082
41.513248 41.741686 41.972010 42.204347 42.438277 42.673905 42.910779 43.148983
43.388034 43.627997 43.868364 44.109180 44.349914 44.590594 44.830673 45.070163
45.308507 45.545701 45.781185 46.014944 46.246418 46.475586 46.701893 46.925315
47.145309 47.361851 47.574415 47.782979 47.987041 48.186583 48.381130 48.570670
48.754760 48.933396 49.106169 49.273083 49.433763 49.588225 49.736129 49.877499
50.012033 50.139759 50.260414 50.374032 50.480383 50.579505 50.671204 50.755517
50.832283 50.901539 50.963154 51.017160 51.063460 51.102078 51.132945 51.156078
51.171438 51.179032 51.178847 51.170884 51.155156 51.131654 51.100419 51.061433
51.014767 50.960395 50.898416 50.828798 50.751671 50.667000 50.574946 50.475471
50.368772 50.254811 50.133818 50.005760 49.870902 49.729216 49.581005 49.426247
49.265282 49.098097 48.925069 48.746193 48.561883 48.372142 48.177418 47.977722
47.773534 47.564872 47.352243 47.135670 46.915683 46.692307 46.466090 46.237059
46.005772 45.772252 45.537066 45.300228 45.062307 44.823306 44.583789 44.343746
44.103731 43.863718 43.624243 43.385264 43.147296 42.910276 42.674696 42.440469
42.208060 41.977360 41.748802 41.522257 41.298122 41.076245 40.856990 40.640184
40.426151 40.214701 40.006120 39.800200 39.597188 39.396860 39.199425 39.004647
38.812694 38.623323 38.436661 38.252458 38.070804 37.891446 37.714436 37.539519
37.366713 37.195765 37.026659 36.859145 36.693176 36.528511 36.365071 36.202627
36.041070 35.880185 35.719838 35.559829 35.400000
35.777778 35.964495 36.151407 36.338686 36.526546 36.715132 36.904678 37.095299
37.287244 37.480596 37.675615 37.872350 38.071070 38.271787 38.474776 38.680010
38.887766 39.097977 39.310916 39.526478 39.744931 39.966124 40.190319 40.417322
40.647382 40.880262 41.116196 41.354904 41.596601 41.840964 42.088190 42.337912
42.590304 42.844958 43.102026 43.361059 43.622187 43.884921 44.149366 44.415002
44.681907 44.949532 45.217932 45.486529 45.755360 46.023824 46.291938 46.559088
46.825272 47.089867 47.352859 47.613621 47.872130 48.127763 48.380489 48.629698
48.875356 49.116869 49.354206 49.586794 49.814608 50.037103 50.254260 50.465568
50.671016 50.870131 51.062911 51.248921 51.428172 51.600269 51.765232 51.922708
52.072725 52.214972 52.349484 52.475991 52.594533 52.704878 52.807069 52.900911
52.986446 53.063516 53.132160 53.192253 53.243828 53.286794 53.321175 53.346912
53.364020 53.372470 53.372266 53.363409 53.345893 53.319749 53.284960 53.241588
53.189608 53.129111 53.060064 52.982593 52.896659 52.802421 52.699838 52.589104
52.470177 52.343290 52.208404 52.065790 51.915414 51.757589 51.592286 51.419862
51.240296 51.053986 50.860923 50.661544 50.455851 50.244322 50.026968 49.804304
49.576350 49.343655 49.106246 48.864700 48.619049 48.369894 48.117268 47.861788
47.603487 47.342993 47.080330 46.816134 46.550418 46.283814 46.016324 45.748571
45.480539 45.212835 44.945427 44.678899 44.413197 44.148881 43.885871 43.624700
43.365261 43.108053 42.852947 42.600402 42.350265 42.102958 41.858301 41.616676
41.377882 41.142256 40.909578 40.680142 40.453709 40.230530 40.010351 39.793377
39.579343 39.368412 39.160308 38.955150 38.752659 38.552911 38.355623 38.160832
37.968256 37.777892 37.589462 37.402927 37.218015 37.034653 36.852579 36.671687
36.491729 36.312569 36.133974 35.955781 35.777778
36.155556 36.361472 36.567592 36.774143 36.981300 37.189312 37.398323 37.608602
37.820258 38.033573 38.248622 38.465697 38.684835 38.906335 39.130192 39.356709
39.585838 39.817882 40.052749 40.290738 40.531709 40.775955 41.023288 41.273989
41.527824 41.785059 42.045409 42.309124 42.575872 42.845879 43.118768 43.394740
43.673371 43.954839 44.238673 44.525025 44.813380 45.103864 45.395922 45.689652
45.984462 46.280425 46.576917 46.873984 47.170978 47.467920 47.764142 48.059645
48.353746 48.646430 48.937008 49.225451 49.511070 49.793829 50.073046 50.348679
50.620064 50.887160 51.149322 51.406513 51.658119 51.904109 52.143904 52.377482
52.604302 52.824356 53.037143 53.242668 53.440475 53.630581 53.812576 53.986488
54.151953 54.309009 54.457337 54.596981 54.727667 54.849444 54.962079 55.065622
55.159882 55.244904 55.320536 55.386820 55.443639 55.491027 55.528901 55.557285
55.576130 55.585450 55.585227 55.575461 55.556170 55.527340 55.489022 55.441190
55.383928 55.317202 55.241129 55.155668 55.060973 54.956997 54.843931 54.721729
54.590621 54.450562 54.301825 54.144368 53.978509 53.804215 53.621848 53.431383
53.233232 53.027379 52.814282 52.593938 52.366851 52.133030 51.893021 51.646844
51.395086 51.137778 50.875538 50.608406 50.337032 50.061456 49.782352 49.499762
49.214373 48.926224 48.636012 48.343765 48.050182 47.755279 47.459747 47.163586
46.867474 46.571390 46.275992 45.981235 45.687753 45.395474 45.105001 44.816235
44.529743 44.245399 43.963730 43.684582 43.408439 43.135122 42.865068 42.598073
42.334528 42.074204 41.817446 41.564002 41.314168 41.067675 40.824772 40.585172
40.349075 40.116184 39.886651 39.660171 39.436848 39.216373 38.998805 38.783832
38.571472 38.361415 38.153635 37.947829 37.743934 37.541653 37.340887 37.141354
36.942918 36.745314 36.548374 36.351854 36.155556
36.533333 36.758587 36.984077 37.210013 37.436656 37.664184 37.892880 38.122885
38.354501 38.587831 38.823189 39.060640 39.300507 39.542810 39.787879 40.035688
40.286569 40.540447 40.797653 41.058062 41.321998 41.589285 41.860236 42.134625
42.412749 42.694328 42.979642 43.268359 43.560736 43.856389 44.155551 44.457784
44.763295 45.071595 45.382864 45.696564 46.012842 46.331117 46.651504 46.973381
47.296832 47.621196 47.946531 48.272141 48.598058 48.923559 49.248651 49.572594
49.895373 50.216236 50.535152 50.851364 51.164831 51.474800 51.781223 52.083360
52.381159 52.673905 52.961546 53.243395 53.519410 53.788936 54.051942 54.307814
54.556534 54.797535 55.030809 55.255840 55.472636 55.680728 55.880140 56.070453
56.251703 56.423522 56.585956 56.738686 56.881764 57.014918 57.138204 57.251395
57.354545 57.447471 57.530222 57.602656 57.664814 57.716592 57.758021 57.789033
57.809647 57.819830 57.819589 57.808922 57.787825 57.756330 57.714419 57.662160
57.599521 57.526609 57.443380 57.349978 57.246355 57.132695 57.008943 56.875326
56.731792 56.578611 56.415734 56.243479 56.061802 55.871074 55.671259 55.462778
55.245608 55.020221 54.786610 54.545296 54.296285 54.040150 53.776910 53.507184
53.231003 52.949028 52.661302 52.368520 52.070731 51.768660 51.462360 51.152577
50.839361 50.523472 50.204954 49.884572 49.562357 49.239072 48.914731 48.590086
48.265130 47.940597 47.616455 47.293411 46.971408 46.651120 46.332461 46.016067
45.701821 45.390319 45.081411 44.775649 44.472853 44.173526 43.877458 43.585101
43.296219 43.011213 42.729819 42.452387 42.178632 41.908848 41.642733 41.380528
41.121915 40.867083 40.615703 40.367913 40.123374 39.882176 39.643977 39.408816
39.176354 38.946583 38.719167 38.494056 38.270920 38.049669 37.829985 37.611738
37.394628 37.178486 36.963033 36.748068 36.533333
36.911111 37.155861 37.400855 37.646365 37.892603 38.139866 38.388330 38.638314
38.889952 39.143581 39.399294 39.657438 39.918063 40.181522 40.447818 40.717308
40.989943 41.266082 41.545621 41.828914 42.115803 42.406632 42.701189 42.999802
43.302202 43.608700 43.918969 44.233298 44.551302 44.873246 45.198686 45.527859
45.860265 46.196111 46.534842 46.876631 47.220872 47.567706 47.916477 48.267291
48.619449 48.973025 49.327281 49.682257 50.037185 50.392076 50.746135 51.099350
51.450909 51.800777 52.148133 52.492929 52.834344 53.172318 53.506040 53.835447
54.159746 54.478874 54.792066 55.099266 55.399745 55.693454 55.979709 56.258475
56.529114 56.791609 57.045372 57.290403 57.526170 57.752689 57.969485 58.176587
58.373576 58.560497 58.736982 58.903086 59.058495 59.203269 59.337144 59.460181
59.572164 59.673151 59.762970 59.841673 59.909129 59.965381 60.010336 60.044025
60.066394 60.077457 60.077197 60.065614 60.042726 60.008518 59.963043 59.906274
59.838301 59.759083 59.668750 59.567252 59.454760 59.331217 59.196840 59.051569
58.895668 58.729079 58.552116 58.364727 58.167279 57.959728 57.742499 57.515560
57.279391 57.033976 56.779851 56.517017 56.246067 55.967017 55.680511 55.386585
55.085929 54.778593 54.465312 54.146143 53.821859 53.492523 53.158936 52.821164
52.480023 52.135578 51.788655 51.439307 51.088363 50.735860 50.382619 50.028654
49.674772 49.320961 48.968003 48.615857 48.265273 47.916179 47.569287 47.224491
46.882458 46.543050 46.206885 45.873791 45.544335 45.218311 44.896233 44.577861
44.263656 43.953349 43.647341 43.345338 43.047686 42.754065 42.464764 42.179446
41.898341 41.621097 41.347889 41.078354 40.812612 40.550293 40.291463 40.035753
39.783177 39.533366 39.286287 39.041578 38.799158 38.558677 38.320010 38.082823
37.846950 37.612075 37.377997 37.144421 36.911111
37.288889 37.553290 37.817973 38.083184 38.349234 38.616333 38.884817 39.154855
39.426802 39.700785 39.977174 40.256048 40.537789 40.822425 41.110345 41.401523
41.696349 41.994744 42.297093 42.603259 42.913618 43.227975 43.546693 43.869516
44.196788 44.528193 44.864052 45.203987 45.548293 45.896528 46.248960 46.605085
46.965137 47.328551 47.695528 48.065445 48.438465 48.813910 49.191907 49.571727
49.953459 50.336328 50.720389 51.104827 51.489662 51.874049 52.257977 52.640578
53.021815 53.400806 53.777493 54.150990 54.521225 54.887316 55.249185 55.605964
55.957575 56.303176 56.642692 56.975317 57.300985 57.618933 57.929110 58.230803
58.523980 58.807980 59.082792 59.347815 59.603055 59.847973 60.082595 60.306443
60.519558 60.721523 60.912391 61.091804 61.259825 61.416150 61.560846 61.693662
61.814664 61.923651 62.020682 62.105602 62.178462 62.239148 62.287700 62.324041
62.348198 62.360134 62.359856 62.347365 62.322653 62.285757 62.236651 62.175412
62.101999 62.016529 61.918948 61.809415 61.687869 61.554512 61.409279 61.252423
61.083876 60.903944 60.712564 60.510098 60.296492 60.072165 59.837078 59.591711
59.336040 59.070607 58.795407 58.511044 58.217533 57.915538 57.605091 57.286913
56.961054 56.628286 56.288675 55.943033 55.591437 55.234738 54.873014 54.507143
54.137203 53.764087 53.387866 53.009439 52.628863 52.247032 51.863984 51.480600
51.096890 50.713712 50.331048 49.949724 49.569688 49.191727 48.815753 48.442509
48.071869 47.704524 47.340312 46.979870 46.622997 46.270275 45.921465 45.577089
45.236876 44.901287 44.570020 44.243473 43.921317 43.603888 43.290836 42.982433
42.678310 42.378680 42.083159 41.791899 41.504506 41.221076 40.941211 40.664948
40.391890 40.122021 39.854948 39.590605 39.328606 39.068839 38.810930 38.554723
38.299863 38.046151 37.793254 37.540935 37.288889
37.666667 37.950899 38.235418 38.520542 38.806522 39.093705 39.382300 39.672677
39.965000 40.259659 40.556769 40.856735 41.159619 41.465834 41.775388 42.088698
42.405714 42.726851 43.051998 43.381565 43.715379 44.053835 44.396696 44.744343
45.096472 45.453441 45.814879 46.181119 46.551723 46.926993 47.306424 47.690283
48.077999 48.469804 48.865062 49.263964 49.665813 50.070761 50.478052 50.887796
51.299186 51.712291 52.126258 52.541116 52.955973 53.370825 53.784747 54.197705
54.608754 55.017832 55.423985 55.827132 56.226320 56.621455 57.011595 57.396642
57.775677 58.148605 58.514540 58.873395 59.224327 59.567265 59.901417 60.226730
60.542470 60.848608 61.144471 61.430052 61.704745 61.968565 62.220974 62.462007
62.691191 62.908579 63.113762 63.306806 63.487363 63.655507 63.810948 63.953760
64.083710 64.200867 64.305047 64.396313 64.474526 64.539736 64.591847 64.630895
64.656822 64.669648 64.669353 64.655937 64.629420 64.589783 64.537084 64.471285
64.392486 64.300634 64.195871 64.078132 63.947605 63.804217 63.648206 63.479497
63.298381 63.104785 62.899058 62.681136 62.451430 62.209887 61.956984 61.692685
61.417534 61.131515 60.835240 60.528717 60.212621 59.886985 59.552548 59.209364
58.858231 58.499223 58.133189 57.760217 57.381202 56.996239 56.606259 56.211358
55.812491 55.409750 55.004101 54.595625 54.185289 53.773156 53.360181 52.946403
52.532756 52.119248 51.706784 51.295335 50.885768 50.478016 50.072899 49.670311
49.271019 48.874874 48.482589 48.093970 47.709671 47.329459 46.953922 46.582791
46.216587 45.855006 45.498505 45.146745 44.800117 44.458256 44.121485 43.789416
43.462307 43.139752 42.821944 42.508463 42.199439 41.894445 41.593550 41.296323
41.002775 40.712478 40.425385 40.141076 39.859453 39.580106 39.302886 39.027403
38.753461 38.480689 38.208851 37.937603 37.666667
38.044444 38.348678 38.653237 38.958413 39.264564 39.571939 39.880923 40.191720
40.504737 40.820129 41.138321 41.459413 41.783842 42.111653 42.443288 42.778731
43.118428 43.462297 43.810780 44.163731 44.521581 44.884115 45.251749 45.624199
46.001858 46.384374 46.772112 47.164648 47.562317 47.964621 48.371862 48.783469
49.199705 49.619930 50.044364 50.472299 50.903910 51.338427 51.775979 52.215733
52.657777 53.101222 53.546112 53.991512 54.437425 54.882877 55.327834 55.771296
56.213195 56.652513 57.089160 57.522112 57.951260 58.375586 58.794975 59.208426
59.615823 60.016198 60.409441 60.794624 61.171654 61.539655 61.898553 62.247532
62.586542 62.914834 63.232384 63.538515 63.833227 64.115916 64.386608 64.644771
64.890454 65.123195 65.343059 65.549652 65.743052 65.922929 66.089366 66.242092