# vtk DataFile Version 3.0
Steady-state temperature (Jacobi)
ASCII
DATASET STRUCTURED_POINTS
DIMENSIONS 181 181 1
ORIGIN 0.0 0.0 0.0
SPACING 0.05 0.05 1.0
POINT_DATA 32761
SCALARS Temperature float 1
LOOKUP_TABLE default
32.000000 32.000000 32.000000 32.000000 32.000000 32.000000 32.000000 32.000000
32.000000 32.000000 32.000000 32.000000 32.000000 32.000000 32.000000 32.000000
32.000000 32.000000 32.000000 32.000000 32.000000 32.000000 32.000000 32.000000
32.000000 32.000000 32.000000 32.000000 32.000000 32.000000 32.000000 32.000000
32.000000 32.000000 32.000000 32.000000 32.000000 32.000000 32.000000 32.000000
32.000000 32.000000 32.000000 32.000000 32.000000 32.000000 32.000000 32.000000
32.000000 32.000000 32.000000 32.000000 32.000000 32.000000 32.000000 32.000000
32.000000 32.000000 32.000000 32.000000 32.000000 32.000000 32.000000 32.000000
32.000000 32.000000 32.000000 32.000000 32.000000 32.000000 32.000000 32.000000
32.000000 32.000000 32.000000 32.000000 32.000000 32.000000 32.000000 32.000000
32.000000 32.000000 32.000000 32.000000 32.000000 32.000000 32.000000 32.000000
32.000000 32.000000 32.000000 32.000000 32.000000 32.000000 32.000000 32.000000
32.000000 32.000000 32.000000 32.000000 32.000000 32.000000 32.000000 32.000000
32.000000 32.000000 32.000000 32.000000 32.000000 32.000000 32.000000 32.000000
32.000000 32.000000 32.000000 32.000000 32.000000 32.000000 32.000000 32.000000
32.000000 32.000000 32.000000 32.000000 32.000000 32.000000 32.000000 32.000000
32.000000 32.000000 32.000000 32.000000 32.000000 32.000000 32.000000 32.000000
32.000000 32.000000 32.000000 32.000000 32.000000 32.000000 32.000000 32.000000
32.000000 32.000000 32.000000 32.000000 32.000000 32.000000 32.000000 32.000000
32.000000 32.000000 32.000000 32.000000 32.000000 32.000000 32.000000 32.000000
32.000000 32.000000 32.000000 32.000000 32.000000 32.000000 32.000000 32.000000
32.000000 32.000000 32.000000 32.000000 32.000000 32.000000 32.000000 32.000000
32.000000 32.000000 32.000000 32.000000 32.000000
32.377778 32.391609 32.405462 32.419363 32.433331 32.447393 32.461564 32.475877
32.490340 32.504987 32.519824 32.534887 32.550176 32.565729 32.581541 32.597649
32.614047 32.630770 32.647806 32.665193 32.682912 32.701000 32.719434 32.738250
32.757419 32.776978 32.796890 32.817192 32.837842 32.858875 32.880244 32.901981
32.924036 32.946438 32.969131 32.992144 33.015415 33.038971 33.062746 33.086764
33.110957 33.135345 33.159857 33.184511 33.209234 33.234042 33.258858 33.283698
33.308483 33.333227 33.357851 33.382367 33.406697 33.430851 33.454752 33.478409
33.501747 33.524774 33.547418 33.569686 33.591508 33.612894 33.633774 33.654158
33.673983 33.693258 33.711923 33.729988 33.747398 33.764162 33.780231 33.795614
33.810266 33.824198 33.837368 33.849787 33.861419 33.872274 33.882321 33.891569
33.899992 33.907599 33.914367 33.920305 33.925395 33.929644 33.933039 33.935584
33.937272 33.938105 33.938081 33.937199 33.935463 33.932870 33.929426 33.925129
33.919989 33.914002 33.907184 33.899528 33.891054 33.881755 33.871657 33.860750
33.849066 33.836595 33.823371 33.809387 33.794681 33.779244 33.763121 33.746302
33.728838 33.710719 33.692000 33.672672 33.652794 33.632357 33.611425 33.589989
33.568117 33.545801 33.523111 33.500039 33.476659 33.452962 33.429024 33.404836
33.380476 33.355934 33.331287 33.306526 33.281729 33.256882 33.232065 33.207262
33.182552 33.157917 33.133433 33.109081 33.084934 33.060970 33.037260 33.013780
32.990595 32.967681 32.945100 32.922822 32.900905 32.879320 32.858119 32.837269
32.816818 32.796732 32.777054 32.757747 32.738848 32.720321 32.702197 32.684438
32.667070 32.650055 32.633413 32.617105 32.601147 32.585501 32.570175 32.555132
32.540377 32.525873 32.511619 32.497580 32.483750 32.470096 32.456608 32.443253
32.430019 32.416876 32.403805 32.390779 32.377778
32.755556 32.783235 32.810963 32.838779 32.866738 32.894873 32.923245 32.951877
32.980835 33.010135 33.039846 33.069974 33.100593 33.131699 33.163366 33.195583
33.228425 33.261870 33.295995 33.330765 33.366258 33.402431 33.439358 33.476985
33.515387 33.554499 33.594391 33.634989 33.676361 33.718420 33.761233 33.804703
33.848890 33.893689 33.939157 33.985177 34.031804 34.078911 34.126548 34.174581
34.223054 34.271828 34.320941 34.370248 34.419784 34.469398 34.519121 34.568798
34.618459 34.667945 34.717283 34.766313 34.815060 34.863367 34.911254 34.958566
35.005324 35.051376 35.096742 35.141275 35.184994 35.227760 35.269591 35.310355
35.350070 35.388614 35.426004 35.462127 35.497002 35.530523 35.562710 35.593469
35.622818 35.650673 35.677053 35.701882 35.725181 35.746882 35.767005 35.785494
35.802364 35.817570 35.831126 35.842996 35.853191 35.861684 35.868483 35.873570
35.876951 35.878617 35.878569 35.876807 35.873329 35.868145 35.861249 35.852658
35.842365 35.830397 35.816741 35.801435 35.784464 35.765874 35.745649 35.723844
35.700441 35.675507 35.649021 35.621060 35.591603 35.560737 35.528442 35.494812
35.459829 35.423598 35.386100 35.347449 35.307628 35.266759 35.224824 35.181957
35.138139 35.093510 35.048051 35.001910 34.955068 34.907676 34.859715 34.811341
34.762533 34.713450 34.664068 34.614547 34.564861 34.515170 34.465445 34.415843
34.366331 34.317064 34.268006 34.219305 34.170922 34.122999 34.075492 34.028536
33.982083 33.936261 33.891015 33.846466 33.802554 33.759390 33.716912 33.675219
33.634245 33.594081 33.554655 33.516048 33.478186 33.441138 33.404829 33.369317
33.334524 33.300499 33.267162 33.234550 33.202586 33.171295 33.140599 33.110514
33.080964 33.051954 33.023409 32.995327 32.967635 32.940321 32.913316 32.886598
32.860105 32.833806 32.807642 32.781576 32.755556
33.133333 33.174899 33.216532 33.258309 33.300284 33.342545 33.385135 33.428148
33.471614 33.515635 33.560228 33.605498 33.651449 33.698192 33.745716 33.794133
33.843417 33.893683 33.944889 33.997151 34.050411 34.104783 34.160194 34.216757
34.274381 34.333177 34.393038 34.454071 34.516153 34.579386 34.643631 34.708986
34.775295 34.842650 34.910883 34.980077 35.050050 35.120879 35.192370 35.264592
35.337340 35.410676 35.484386 35.558525 35.632870 35.707471 35.782097 35.856794
35.931327 36.005735 36.079783 36.153506 36.226667 36.299299 36.371167 36.442303
36.512476 36.581714 36.649796 36.716748 36.782356 36.846648 36.909420 36.970699
37.030293 37.088231 37.144334 37.198631 37.250956 37.301339 37.349629 37.395857
37.439887 37.481749 37.521321 37.558635 37.593583 37.626194 37.656377 37.684158
37.709462 37.732310 37.752642 37.770476 37.785766 37.798527 37.808724 37.816367
37.821438 37.823941 37.823869 37.821222 37.816006 37.808217 37.797875 37.784969
37.769532 37.751549 37.731068 37.708070 37.682615 37.654682 37.624345 37.591579
37.556475 37.519004 37.479273 37.437252 37.393062 37.346672 37.298220 37.247674
37.195187 37.140728 37.084464 37.026365 36.966611 36.905175 36.842248 36.777804
36.712047 36.644951 36.576731 36.507359 36.437059 36.365805 36.293825 36.221092
36.147840 36.074039 35.999925 35.925464 35.850894 35.776176 35.701547 35.626963
35.552656 35.478576 35.404950 35.331722 35.259110 35.187052 35.115757 35.045154
34.975443 34.906546 34.838648 34.771666 34.705772 34.640875 34.577133 34.514449
34.452966 34.392582 34.333423 34.275382 34.218570 34.162876 34.108395 34.055012
34.002806 33.951660 33.901638 33.852621 33.804657 33.757628 33.711565 33.666353
33.622006 33.578413 33.535574 33.493379 33.451816 33.410780 33.370243 33.330109
33.290336 33.250834 33.211552 33.172406 33.133333
33.511111 33.566615 33.622216 33.677994 33.734059 33.790478 33.847371 33.904788
33.962858 34.021616 34.081197 34.141619 34.203023 34.265406 34.328916 34.393531
34.459400 34.526480 34.594924 34.664667 34.735861 34.808419 34.882494 34.957976
35.035014 35.113477 35.193510 35.274960 35.357967 35.442355 35.528258 35.615481
35.704147 35.794043 35.885284 35.977637 36.071208 36.165747 36.261351 36.357752
36.455039 36.552930 36.651504 36.750469 36.849894 36.949476 37.049278 37.148989
37.248665 37.347992 37.447018 37.545428 37.643265 37.740218 37.836324 37.931276
38.025111 38.117527 38.208561 38.297921 38.385643 38.471448 38.555371 38.637150
38.716820 38.794135 38.869132 38.941581 39.011522 39.078744 39.143287 39.204960
39.263803 39.319647 39.372529 39.422301 39.469000 39.512497 39.552826 39.589878
39.623685 39.654157 39.681320 39.705104 39.725530 39.742546 39.756169 39.766362
39.773136 39.776473 39.776377 39.772847 39.765881 39.755495 39.741679 39.724468
39.703846 39.679865 39.652504 39.621833 39.587824 39.550570 39.510036 39.466333
39.419426 39.369444 39.316351 39.260295 39.201237 39.139349 39.074591 39.007152
38.936995 38.864330 38.789118 38.711589 38.631707 38.549718 38.465588 38.379581
38.291661 38.202109 38.110890 38.018296 37.924292 37.829182 37.732928 37.635841
37.537882 37.439367 37.340252 37.240857 37.141131 37.041393 36.941587 36.842028
36.742652 36.643768 36.545304 36.447559 36.350453 36.254273 36.158929 36.064694
35.971471 35.879515 35.788720 35.699324 35.611210 35.524600 35.439368 35.355714
35.273506 35.192923 35.113825 35.036371 34.960416 34.886095 34.813260 34.742024
34.672234 34.603984 34.537118 34.471708 34.407598 34.344838 34.283275 34.222937
34.163673 34.105493 34.048249 33.991932 33.936399 33.881623 33.827469 33.773891
33.720764 33.668026 33.615560 33.563290 33.511111
33.888889 33.958407 34.028036 34.097906 34.168110 34.238792 34.310025 34.381965
34.454666 34.528295 34.602882 34.678604 34.755469 34.833658 34.913157 34.994150
35.076599 35.160692 35.246362 35.333800 35.422911 35.513887 35.606605 35.701254
35.797683 35.896077 35.996258 36.098404 36.202311 36.308147 36.415684 36.525081
36.636083 36.748839 36.863068 36.978911 37.096063 37.214651 37.334352 37.455281
37.577095 37.699896 37.823326 37.947476 38.071973 38.196899 38.321870 38.446957
38.571771 38.696375 38.820374 38.943825 39.066334 39.187953 39.308290 39.427394
39.544882 39.660798 39.774772 39.886848 39.996668 40.104275 40.209332 40.311882
40.411605 40.508548 40.602412 40.693245 40.780772 40.865043 40.945806 41.023113
41.096737 41.166728 41.232887 41.295263 41.353680 41.408186 41.458631 41.505057
41.547340 41.585518 41.619489 41.649286 41.674831 41.696149 41.713184 41.725953
41.734424 41.738605 41.738485 41.734064 41.725353 41.712343 41.695066 41.673506
41.647717 41.617674 41.583456 41.545029 41.502495 41.455815 41.405115 41.350352
41.291675 41.229038 41.162615 41.092359 41.018468 40.940893 40.859860 40.775320
40.687522 40.596419 40.502286 40.405076 40.305088 40.202277 40.096962 39.989101
39.879034 39.766719 39.652513 39.536375 39.418677 39.299375 39.178853 39.057066
38.934407 38.810824 38.686715 38.562024 38.437149 38.312027 38.187053 38.062155
37.937721 37.813671 37.690382 37.567762 37.446177 37.325523 37.206149 37.087939
36.971225 36.855878 36.742208 36.630076 36.519769 36.411137 36.304441 36.199522
36.096617 35.995554 35.896546 35.799414 35.704342 35.611145 35.519980 35.430657
35.343306 35.257733 35.174041 35.092036 35.011793 34.933117 34.856060 34.780428
34.706246 34.633326 34.561668 34.491090 34.421569 34.352931 34.285130 34.218002
34.151480 34.085412 34.019711 33.954239 33.888889
34.266667 34.350283 34.434044 34.518075 34.602538 34.687536 34.773247 34.859751
34.947240 35.035767 35.125538 35.216576 35.309098 35.403098 35.498801 35.596170
35.695434 35.796528 35.899681 36.004797 36.112104 36.221474 36.333134 36.446923
36.563061 36.681356 36.802023 36.924834 37.049998 37.177253 37.306798 37.438341
37.572068 37.707657 37.845280 37.984589 38.125741 38.268359 38.412589 38.558029
38.704809 38.852506 39.001238 39.150563 39.300584 39.450846 39.601439 39.751897
39.902300 40.052175 40.201593 40.350080 40.497697 40.643975 40.788969 40.932216
41.073767 41.213172 41.350480 41.485254 41.617545 41.746935 41.873476 41.996771
42.116873 42.233414 42.346446 42.455628 42.561017 42.662298 42.759529 42.852428
42.941053 43.025151 43.104780 43.179717 43.250020 43.315495 43.376196 43.431959
43.482834 43.528686 43.569558 43.605341 43.636072 43.661672 43.682164 43.697498
43.707688 43.712709 43.712566 43.707258 43.696780 43.681158 43.660376 43.634486
43.603463 43.567385 43.526218 43.480068 43.428892 43.372825 43.311818 43.246035
43.175422 43.100171 43.020226 42.935811 42.846866 42.753646 42.656091 42.554487
42.448775 42.339270 42.225915 42.109054 41.988634 41.865025 41.738175 41.608482
41.475895 41.340833 41.203248 41.063578 40.921773 40.778289 40.633074 40.486596
40.338797 40.190153 40.040603 39.890624 39.740148 39.589650 39.439053 39.288826
39.138881 38.989677 38.841113 38.693636 38.547129 38.402021 38.258183 38.116023
37.975395 37.836685 37.699732 37.564895 37.432001 37.301380 37.172844 37.046695
36.922732 36.801226 36.681967 36.565191 36.450681 36.338640 36.228844 36.121464
36.016270 35.913400 35.812621 35.714040 35.617422 35.522843 35.430071 35.339148
35.249847 35.162181 35.075928 34.991073 34.907403 34.824874 34.743283 34.662562
34.582522 34.503067 34.424024 34.345277 34.266667
34.644444 34.742271 34.840256 34.938579 35.037374 35.136842 35.237088 35.338331
35.440648 35.544273 35.649251 35.755828 35.864019 35.974077 36.085984 36.200000
36.316070 36.434461 36.555078 36.678191 36.803669 36.931778 37.062349 37.195645
37.331460 37.470048 37.611165 37.755057 37.901441 38.050551 38.202069 38.356216
38.512635 38.671534 38.832522 38.995791 39.160916 39.328074 39.496811 39.667284
39.839013 40.012140 40.186160 40.361199 40.536734 40.712874 40.889081 41.065452
41.241438 41.417124 41.591956 41.766008 41.938729 42.110183 42.279826 42.447717
42.613321 42.776696 42.937322 43.095254 43.249996 43.401602 43.549599 43.694045
43.834494 43.971007 44.103170 44.231045 44.354251 44.472854 44.586506 44.695277
44.798853 44.897303 44.990351 45.078065 45.160203 45.236831 45.307741 45.372995
45.432420 45.486070 45.533805 45.575670 45.611559 45.641507 45.665438 45.683376
45.695276 45.701151 45.700984 45.694776 45.682541 45.664268 45.640000 45.609714
45.573485 45.531277 45.483198 45.429201 45.369427 45.303820 45.232554 45.155567
45.073067 44.984989 44.891573 44.792753 44.688804 44.579660 44.465631 44.346652
44.223069 44.094817 43.962279 43.825393 43.684573 43.539761 43.391404 43.239445
43.084359 42.926091 42.765142 42.601458 42.435559 42.267391 42.097492 41.925802
41.752872 41.578636 41.403651 41.227845 41.051775 40.875357 40.699146 40.523047
40.347602 40.172704 39.998882 39.826012 39.654604 39.484518 39.316242 39.149618
38.985108 38.822536 38.662335 38.504313 38.348870 38.195798 38.045464 37.897642
37.752666 37.610297 37.470828 37.334013 37.200106 37.068849 36.940460 36.814673
36.691670 36.571177 36.453339 36.337882 36.224910 36.114152 36.005675 35.899210
35.794789 35.692149 35.591288 35.491952 35.394105 35.297503 35.202081 35.107608
35.013989 34.921011 34.828550 34.736411 34.644444
35.022222 35.134377 35.246726 35.359437 35.472729 35.586741 35.701712 35.817750
35.935112 36.053870 36.174301 36.296438 36.420569 36.546692 36.675103 36.805759
36.938964 37.074633 37.213073 37.354157 37.498190 37.645005 37.794902 37.947668
38.103600 38.262441 38.424477 38.589407 38.757507 38.928432 39.102443 39.279153
39.458809 39.640982 39.825900 40.013097 40.202781 40.394451 40.588295 40.783779
40.981072 41.179611 41.379545 41.580286 41.781966 41.983976 42.186430 42.388708
42.590908 42.792399 42.993268 43.192882 43.391316 43.587943 43.782829 43.975355
44.165586 44.352917 44.537409 44.718480 44.896192 45.069987 45.239929 45.405493
45.566743 45.723188 45.874898 46.021419 46.162823 46.298695 46.429111 46.553696
46.672528 46.785272 46.892006 46.992437 47.086641 47.174364 47.255679 47.330370
47.398504 47.459905 47.514629 47.562539 47.603679 47.637948 47.665379 47.685904
47.699544 47.706266 47.706076 47.698974 47.684953 47.664045 47.636231 47.601577
47.560050 47.511751 47.456634 47.394838 47.326305 47.251212 47.169492 47.081360
46.986744 46.885897 46.778743 46.665577 46.546321 46.421309 46.290465 46.154163
46.012329 45.865378 45.713240 45.556369 45.394696 45.228716 45.058363 44.884164
44.706059 44.524606 44.339744 44.152060 43.961494 43.768652 43.573473 43.376579
43.177905 42.978083 42.777039 42.575411 42.373115 42.170786 41.968326 41.766365
41.564788 41.364211 41.164504 40.966261 40.769335 40.574297 40.380978 40.189923
40.000941 39.814545 39.630527 39.449362 39.270822 39.095346 38.922687 38.753243
38.586752 38.423569 38.263418 38.106612 37.952860 37.802434 37.655033 37.510883
37.369678 37.231601 37.096340 36.964035 36.834375 36.707456 36.582967 36.460967
36.341148 36.223527 36.107808 35.993967 35.881720 35.771006 35.661555 35.553273
35.445905 35.339324 35.233297 35.127667 35.022222
35.400000 35.526628 35.653461 35.780733 35.908618 36.037376 36.167145 36.298208
36.430666 36.564821 36.700734 36.838724 36.978810 37.121322 37.266235 37.413889
37.564213 37.717551 37.873787 38.033264 38.195820 38.361794 38.530975 38.703699
38.879703 39.059315 39.242222 39.428740 39.618507 39.811824 40.008282 40.208163
40.411012 40.617091 40.825900 41.037681 41.251891 41.468749 41.687675 41.908864
42.131701 42.356359 42.582192 42.809352 43.037166 43.265768 43.494465 43.723371
43.951782 44.179795 44.406699 44.632579 44.856725 45.079211 45.299335 45.517164
45.732011 45.943939 46.152281 46.357101 46.557758 46.754318 46.946172 47.133389
47.315399 47.492273 47.663481 47.829101 47.988646 48.142198 48.289315 48.430082
48.564102 48.691464 48.811816 48.925245 49.031448 49.130506 49.222160 49.306489
49.383274 49.452587 49.514252 49.568329 49.614682 49.653358 49.684263 49.707427
49.722795 49.730382 49.730169 49.722156 49.706361 49.682769 49.651435 49.612327
49.565540 49.511026 49.448922 49.379165 49.301933 49.217153 49.125045 49.025528
48.918863 48.804967 48.684145 48.556310 48.421813 48.280567 48.132970 47.978935
47.818907 47.652805 47.481116 47.303763 47.121280 46.933594 46.741279 46.544266
46.343167 46.137917 45.929161 45.716836 45.501613 45.283429 45.062977 44.840190
44.615776 44.389661 44.162562 43.934395 43.705878 43.476914 43.248214 43.019667
42.791971 42.564995 42.339421 42.115096 41.892676 41.671988 41.453659 41.237491
41.024077 40.813198 40.605407 40.400461 40.198875 40.000383 39.805454 39.613803
39.425854 39.241304 39.060527 38.883205 38.709665 38.539576 38.373215 38.210240
38.050881 37.894789 37.742144 37.592595 37.446274 37.302829 37.162346 37.024478
36.889262 36.756360 36.625767 36.497153 36.370471 36.245407 36.121873 35.999572
35.878378 35.758015 35.638323 35.519049 35.400000
35.777778 35.919026 36.060521 36.202473 36.345160 36.488756 36.633564 36.779719
36.927548 37.077144 37.228851 37.382717 37.539103 37.698009 37.859806 38.024446
38.192308 38.363290 38.537776 38.715611 38.897178 39.082269 39.271261 39.463893
39.660531 39.860860 40.065236 40.273287 40.485354 40.701011 40.920579 41.143581
41.370317 41.600257 41.833679 42.070005 42.309488 42.551503 42.796278 43.043148
43.292315 43.543076 43.795607 44.049175 44.303933 44.559122 44.814872 45.070406
45.325836 45.580372 45.834110 46.086258 46.336899 46.585245 46.831368 47.074495
47.314692 47.551205 47.784100 48.012648 48.236916 48.456210 48.670600 48.879432
49.082779 49.280031 49.471270 49.655930 49.834100 50.005264 50.169515 50.326390
50.475985 50.617887 50.752194 50.878544 50.997034 51.107353 51.209591 51.303487
51.389124 51.466288 51.535051 51.595243 51.646926 51.689973 51.724428 51.750209
51.767342 51.775786 51.775550 51.766635 51.749029 51.722775 51.687845 51.644321
51.592158 51.531482 51.462232 51.384578 51.298446 51.204051 51.101310 50.990483
50.871481 50.744614 50.609787 50.467361 50.317238 50.159832 49.995048 49.823349
49.644644 49.459449 49.267678 49.069896 48.866022 48.656672 48.441769 48.221973
47.997215 47.768191 47.534837 47.297884 47.057268 46.813749 46.567260 46.318583
46.067644 45.815237 45.561282 45.306578 45.051029 44.795434 44.539680 44.284556
44.029929 43.776570 43.524325 43.273939 43.025235 42.778928 42.534814 42.293572
42.054974 41.819657 41.587366 41.358693 41.133360 40.911911 40.694042 40.480247
40.270202 40.064348 39.862341 39.664568 39.470670 39.280980 39.095124 38.913381
38.735369 38.561312 38.390821 38.224067 38.060660 37.900716 37.743849 37.590123
37.439157 37.290968 37.145183 37.001770 36.860370 36.720908 36.583041 36.446649
36.311412 36.177170 36.043628 35.910586 35.777778
36.155556 36.311603 36.467905 36.624749 36.782352 36.941033 37.100966 37.262499
37.425759 37.591117 37.758653 37.928757 38.101456 38.277157 38.455833 38.637900
38.823277 39.012385 39.205086 39.401800 39.602334 39.807103 40.015853 40.228993
40.446208 40.667896 40.893680 41.123944 41.358250 41.596962 41.839584 42.086457
42.337028 42.591613 42.849603 43.111288 43.376006 43.644018 43.914614 44.188027
44.463503 44.741246 45.020464 45.301333 45.583030 45.865704 46.148508 46.431569
46.714022 46.995974 47.276552 47.555847 47.832988 48.108051 48.380175 48.649431
48.914974 49.176870 49.434302 49.687337 49.935191 50.177934 50.414824 50.645935
50.870572 51.088817 51.300025 51.504286 51.701009 51.890292 52.071599 52.245034
52.410118 52.566957 52.715131 52.854746 52.985437 53.107308 53.220048 53.323754
53.418168 53.503377 53.579175 53.645634 53.702595 53.750118 53.788089 53.816549
53.835430 53.844753 53.844495 53.834656 53.815258 53.786280 53.747789 53.699744
53.642256 53.575268 53.498938 53.413191 53.318235 53.213982 53.100691 52.978264
52.847012 52.706831 52.558086 52.400672 52.235009 52.060992 51.879101 51.689232
51.491921 51.287074 51.075281 50.856454 50.631240 50.399558 50.162107 49.918813
49.670421 49.416863 49.158927 48.896547 48.630547 48.360859 48.088336 47.812906
47.535441 47.255861 46.975047 46.692910 46.410329 46.127200 45.844396 45.561792
45.280244 44.999604 44.720706 44.443375 44.168414 43.895620 43.625758 43.358597
43.094860 42.834285 42.577548 42.324358 42.075340 41.830175 41.589433 41.352771
41.120701 40.892856 40.669691 40.450818 40.236633 40.026732 39.821448 39.620368
39.423763 39.231210 39.042924 38.858475 38.678019 38.501127 38.327898 38.157906
37.991195 37.827348 37.666355 37.507811 37.351655 37.197501 37.045237 36.894498
36.745128 36.596785 36.449271 36.302275 36.155556
36.533333 36.704354 36.875674 37.047551 37.220319 37.394194 37.569542 37.746529
37.925550 38.106721 38.290458 38.476823 38.666252 38.858749 39.054763 39.254240
39.457635 39.664835 39.876298 40.091846 40.311937 40.536328 40.765471 40.999058
41.237529 41.480509 41.728424 41.980833 42.238142 42.499845 42.766324 43.037009
43.312256 43.591433 43.874866 44.161865 44.452724 44.746698 45.044049 45.343980
45.646723 45.951433 46.258311 46.566476 46.876095 47.186257 47.497104 47.807700
48.118161 48.427540 48.735933 49.042386 49.346982 49.648771 49.947826 50.243213
50.534996 50.822269 51.105094 51.382598 51.654847 51.921008 52.181153 52.434500
52.681127 52.920306 53.152127 53.375917 53.591777 53.799095 53.997980 54.187882
54.368917 54.540597 54.703040 54.855823 54.999059 55.132388 55.255918 55.369346
55.472773 55.565951 55.648968 55.721629 55.784007 55.835958 55.877535 55.908645
55.929319 55.939511 55.939231 55.928480 55.907244 55.875573 55.833431 55.780913
55.717964 55.644729 55.561133 55.467373 55.363357 55.249336 55.125206 54.991274
54.847427 54.694030 54.530967 54.358662 54.176998 53.986463 53.786942 53.578987
53.362488 53.138060 52.905603 52.665791 52.418536 52.164569 51.903811 51.637051
51.364216 51.086144 50.802769 50.514971 50.222688 49.926833 49.627342 49.325157
49.020205 48.713445 48.404795 48.095217 47.784616 47.473950 47.163103 46.853021
46.543564 46.235655 45.929126 45.624871 45.322690 45.023441 44.726891 44.433854
44.144064 43.858285 43.576220 43.298575 43.025024 42.756214 42.491789 42.232335
41.977468 41.727712 41.482659 41.242766 41.007605 40.777570 40.552215 40.331867
40.116069 39.905083 39.698445 39.496351 39.298334 39.104529 38.914470 38.728229
38.545348 38.365839 38.189256 38.015554 37.844302 37.675401 37.508442 37.343273
37.179509 37.016952 36.855246 36.694147 36.533333
36.911111 37.097313 37.283819 37.470976 37.659042 37.848400 38.039260 38.232035
38.426884 38.624245 38.824221 39.027273 39.233443 39.443209 39.656550 39.873956
40.095341 40.321200 40.551379 40.786377 41.025968 41.270645 41.520115 41.774860
42.034514 42.299546 42.569518 42.844878 43.125117 43.410661 43.700928 43.996318
44.296180 44.600880 44.909705 45.222987 45.539947 45.860883 46.184960 46.512438
46.842428 47.175157 47.509689 47.846215 48.183760 48.522486 48.861386 49.200592
49.539080 49.876954 50.213180 50.547844 50.879912 51.209456 51.535453 51.857966
52.175994 52.489597 52.797807 53.100686 53.397307 53.687737 53.971101 54.247475
54.516039 54.776881 55.029244 55.273226 55.508138 55.734089 55.950455 56.157356
56.354237 56.541223 56.717827 56.884177 57.039852 57.184977 57.319195 57.442626
57.554973 57.656343 57.746500 57.825535 57.893266 57.949766 57.994907 58.028738
58.051184 58.062269 58.061967 58.050280 58.027231 57.992794 57.947045 57.889934
57.821588 57.741935 57.651155 57.549156 57.436175 57.312105 57.177241 57.031464
56.875132 56.708119 56.530846 56.343185 56.145626 55.938042 55.720990 55.494350
55.258750 55.014077 54.761027 54.499501 54.230259 53.953215 53.669191 53.378112
53.080858 52.777364 52.468561 52.154389 51.835822 51.512802 51.186336 50.856362
50.523912 50.188915 49.852414 49.514323 49.175689 48.836407 48.497511 48.158872
47.821507 47.485258 47.151111 46.818875 46.489500 46.162761 45.839562 45.519640
45.203849 44.891890 44.584558 44.281519 43.983506 43.690152 43.402122 43.119019
42.841440 42.568959 42.302104 42.040423 41.784374 41.533483 41.288138 41.047849
40.812932 40.582888 40.357961 40.137645 39.922116 39.710868 39.504009 39.301037
39.101995 38.906390 38.714202 38.524952 38.338561 38.154571 37.972843 37.792944
37.614682 37.437653 37.261615 37.086197 36.911111
37.288889 37.490471 37.692405 37.895001 38.098651 38.303613 38.510318 38.718967
38.930023 39.143629 39.360273 39.580036 39.803427 40.030460 40.261659 40.496970
40.736926 40.981402 41.230933 41.485321 41.745099 42.009993 42.280529 42.556355
42.837984 43.124987 43.417857 43.716088 44.020149 44.329456 44.644451 44.964475
45.289934 45.620099 45.955340 46.294855 46.638979 46.986842 47.338740 47.693743
48.052105 48.412844 48.776174 49.141065 49.507696 49.874999 50.243118 50.610957
50.978631 51.345027 51.710236 52.073138 52.433806 52.791128 53.145163 53.494817
53.840145 54.180083 54.514685 54.842927 55.164870 55.479542 55.787011 56.086365
56.377685 56.660124 56.933778 57.197870 57.452510 57.696995 57.931446 58.155235
58.368493 58.570668 58.761894 58.941691 59.110198 59.267002 59.412238 59.545561
59.667096 59.776562 59.874069 59.959397 60.032637 60.093626 60.142432 60.178948
60.203215 60.215181 60.214859 60.202248 60.177335 60.140171 60.090715 60.029072
59.955174 59.869184 59.771010 59.660871 59.538658 59.404650 59.258722 59.101220
58.932009 58.751501 58.559558 58.356661 58.142674 57.918153 57.682965 57.437742
57.182363 56.917531 56.643139 56.359966 56.067917 55.767843 55.459664 55.144297
54.821673 54.492771 54.157532 53.816984 53.471076 53.120878 52.766338 52.408556
52.047477 51.684219 51.318714 50.952090 50.584257 50.216340 49.848226 49.481022
49.114586 48.749999 48.387083 48.026883 47.669184 47.314985 46.964033 46.617273
46.274409 45.936329 45.602698 45.274336 44.950871 44.633052 44.320472 44.013809
43.712619 43.417506 43.127999 42.844625 42.566886 42.295233 42.029148 41.769006
41.514272 41.265246 41.021384 40.782909 40.549275 40.320630 40.096429 39.876750
39.661056 39.449353 39.241119 39.036294 38.834373 38.635233 38.438393 38.243671
38.050614 37.858983 37.668361 37.478456 37.288889
37.666667 37.883861 38.101412 38.319725 38.539106 38.760000 38.982657 39.207558
39.434893 39.665174 39.898524 40.135481 40.376101 40.620938 40.869978 41.123787
41.382275 41.646015 41.914840 42.189324 42.469218 42.755089 43.046610 43.344335
43.647852 43.957698 44.273378 44.595405 44.923202 45.257252 45.596895 45.942581
46.293569 46.650273 47.011873 47.378741 47.749985 48.125934 48.505625 48.889345
49.276067 49.666035 50.058166 50.452662 50.848395 51.245525 51.642890 52.040614
52.437510 52.833673 53.227901 53.620268 54.009572 54.395869 54.777972 55.155927
55.528573 55.895955 56.256951 56.611609 56.958859 57.298757 57.630296 57.953544
58.267563 58.572438 58.867305 59.152267 59.426537 59.690236 59.942659 60.183938
60.413449 60.631337 60.837054 61.030750 61.211956 61.380820 61.536946 61.680476
61.811083 61.928895 62.033653 62.125465 62.204134 62.269747 62.322164 62.361444
62.387506 62.400380 62.400037 62.386478 62.359729 62.319759 62.266650 62.200342
62.120973 62.028456 61.922988 61.804460 61.673130 61.528871 61.372009 61.202401
61.020444 60.825990 60.619509 60.400851 60.170564 59.928503 59.675295 59.410807
59.135748 58.849996 58.554342 58.248682 57.933886 57.609868 57.277572 56.936929
56.588953 56.233589 55.871912 55.503878 55.130613 54.752076 54.369435 53.982646
53.592904 53.200157 52.805615 52.409207 52.012146 51.614339 51.216984 50.819960
50.424443 50.030273 49.638592 49.249202 48.863199 48.480343 48.101674 47.726909
47.357027 46.991699 46.631836 46.277068 45.928231 45.584912 45.247873 44.916661
44.591960 44.273280 43.961224 43.655275 43.355949 43.062706 42.775981 42.495212
42.220753 41.952029 41.689311 41.432016 41.180337 40.933690 40.692188 40.455252
40.222922 39.994627 39.770335 39.549492 39.331997 39.117318 38.905288 38.695403
38.487435 38.280912 38.075549 37.870914 37.666667
38.044444 38.277471 38.510908 38.745113 38.980543 39.217499 39.456480 39.697724
39.941764 40.188773 40.439312 40.693484 40.951873 41.214506 41.481984 41.754256
42.031933 42.314883 42.603719 42.898225 43.199011 43.505776 43.819118 44.138649
44.464950 44.797544 45.136989 45.482719 45.835263 46.193967 46.559325 46.930594
47.308231 47.691408 48.080536 48.474706 48.874285 49.278285 49.687024 50.099444
50.515815 50.935012 51.357260 51.781378 52.207545 52.634535 53.062486 53.490138
53.917593 54.343572 54.768144 55.190026 55.609265 56.024583 56.436016 56.842307
57.243486 57.638333 58.026879 58.407954 58.781599 59.146704 59.503326 59.850424
60.188074 60.515315 60.832243 61.137980 61.432644 61.715444 61.986515 62.245155
62.491512 62.724971 62.945691 63.153141 63.347481 63.528262 63.695640 63.849242