# vtk DataFile Version 3.0
Steady-state temperature (Jacobi)
ASCII
DATASET STRUCTURED_POINTS
DIMENSIONS 181 181 1
ORIGIN 0.0 0.0 0.0
SPACING 0.05 0.05 1.0
POINT_DATA 32761
SCALARS Temperature float 1
LOOKUP_TABLE default
32.000000 32.000000 32.000000 32.000000 32.000000 32.000000 32.000000 32.000000
32.000000 32.000000 32.000000 32.000000 32.000000 32.000000 32.000000 32.000000
32.000000 32.000000 32.000000 32.000000 32.000000 32.000000 32.000000 32.000000
32.000000 32.000000 32.000000 32.000000 32.000000 32.000000 32.000000 32.000000
32.000000 32.000000 32.000000 32.000000 32.000000 32.000000 32.000000 32.000000
32.000000 32.000000 32.000000 32.000000 32.000000 32.000000 32.000000 32.000000
32.000000 32.000000 32.000000 32.000000 32.000000 32.000000 32.000000 32.000000
32.000000 32.000000 32.000000 32.000000 32.000000 32.000000 32.000000 32.000000
32.000000 32.000000 32.000000 32.000000 32.000000 32.000000 32.000000 32.000000
32.000000 32.000000 32.000000 32.000000 32.000000 32.000000 32.000000 32.000000
32.000000 32.000000 32.000000 32.000000 32.000000 32.000000 32.000000 32.000000
32.000000 32.000000 32.000000 32.000000 32.000000 32.000000 32.000000 32.000000
32.000000 32.000000 32.000000 32.000000 32.000000 32.000000 32.000000 32.000000
32.000000 32.000000 32.000000 32.000000 32.000000 32.000000 32.000000 32.000000
32.000000 32.000000 32.000000 32.000000 32.000000 32.000000 32.000000 32.000000
32.000000 32.000000 32.000000 32.000000 32.000000 32.000000 32.000000 32.000000
32.000000 32.000000 32.000000 32.000000 32.000000 32.000000 32.000000 32.000000
32.000000 32.000000 32.000000 32.000000 32.000000 32.000000 32.000000 32.000000
32.000000 32.000000 32.000000 32.000000 32.000000 32.000000 32.000000 32.000000
32.000000 32.000000 32.000000 32.000000 32.000000 32.000000 32.000000 32.000000
32.000000 32.000000 32.000000 32.000000 32.000000 32.000000 32.000000 32.000000
32.000000 32.000000 32.000000 32.000000 32.000000 32.000000 32.000000 32.000000
32.000000 32.000000 32.000000 32.000000 32.000000
32.377778 32.383324 32.388898 32.394535 32.400258 32.406105 32.412094 32.418266
32.424635 32.431245 32.438102 32.445257 32.452706 32.460503 32.468640 32.477171
32.486080 32.495425 32.505183 32.515412 32.526082 32.537252 32.548884 32.561039
32.573671 32.586839 32.600492 32.614689 32.629370 32.644593 32.660292 32.676523
32.693213 32.710418 32.728057 32.746185 32.764714 32.783698 32.803043 32.822799
32.842869 32.863302 32.883994 32.904992 32.926191 32.947633 32.969210 32.990964
33.012784 33.034710 33.056631 33.078584 33.100458 33.122289 33.143966 33.165526
33.186858 33.207998 33.228839 33.249414 33.269621 33.289493 33.308931 33.327967
33.346509 33.364587 33.382115 33.399122 33.415529 33.431363 33.446552 33.461122
33.475008 33.488235 33.500744 33.512558 33.523627 33.533971 33.543545 33.552371
33.560408 33.567675 33.574140 33.579819 33.584685 33.588751 33.591999 33.594437
33.596054 33.596854 33.596833 33.595992 33.594333 33.591853 33.588563 33.584454
33.579544 33.573821 33.567311 33.559997 33.551912 33.543038 33.533413 33.523017
33.511895 33.500025 33.487460 33.474174 33.460228 33.445595 33.430342 33.414441
33.397966 33.380888 33.363288 33.345135 33.326517 33.307402 33.287883 33.267929
33.247638 33.226977 33.206049 33.184820 33.163398 33.141747 33.119977 33.098054
33.076087 33.054041 33.032027 33.010009 32.988097 32.966252 32.944586 32.923057
32.901775 32.880695 32.859924 32.839417 32.819277 32.799456 32.780052 32.761015
32.742440 32.724273 32.706603 32.689376 32.672674 32.656441 32.640752 32.625550
32.610903 32.596753 32.583162 32.570070 32.557531 32.545486 32.533981 32.522957
32.512453 32.502409 32.492858 32.483741 32.475083 32.466826 32.458989 32.451515
32.444415 32.437636 32.431181 32.425001 32.419091 32.413404 32.407932 32.402630
32.397482 32.392449 32.387510 32.382628 32.377778
32.755556 32.766669 32.777845 32.789136 32.800614 32.812320 32.824334 32.836687
32.849468 32.862692 32.876457 32.890765 32.905719 32.921311 32.937645 32.954700
32.972587 32.991268 33.010858 33.031304 33.052724 33.075050 33.098401 33.122696
33.148051 33.174372 33.201777 33.230153 33.259618 33.290047 33.321553 33.353998
33.387493 33.421884 33.457282 33.493519 33.530701 33.568649 33.607466 33.646961
33.687232 33.728079 33.769597 33.811576 33.854107 33.896974 33.940263 33.983755
34.027530 34.071366 34.115340 34.159230 34.203109 34.246755 34.290239 34.333341
34.376131 34.418393 34.460195 34.501328 34.541857 34.581582 34.620567 34.658621
34.695806 34.731944 34.767095 34.801090 34.833991 34.865640 34.896097 34.925220
34.953063 34.979499 35.004580 35.028192 35.050384 35.071056 35.090253 35.107889
35.124003 35.138525 35.151487 35.162833 35.172590 35.180715 35.187226 35.192097
35.195339 35.196937 35.196896 35.195215 35.191890 35.186935 35.180339 35.172128
35.162284 35.150849 35.137796 35.123181 35.106972 35.089238 35.069940 35.049164
35.026866 35.003144 34.977949 34.951396 34.923432 34.894185 34.863599 34.831816
34.798779 34.764642 34.729347 34.693060 34.655721 34.617510 34.578363 34.538474
34.497776 34.456472 34.414495 34.372056 34.329086 34.285801 34.242133 34.198302
34.154237 34.110161 34.066001 34.021980 33.978022 33.934349 33.890882 33.847841
33.805142 33.762999 33.721326 33.680330 33.639919 33.600295 33.561359 33.523305
33.486030 33.449716 33.414257 33.379822 33.346302 33.313855 33.282367 33.251982
33.222584 33.194303 33.167022 33.140855 33.115685 33.091611 33.068514 33.046481
33.025391 33.005317 32.986140 32.967917 32.950532 32.934027 32.918290 32.903348
32.889092 32.875536 32.862577 32.850214 32.838350 32.826972 32.815989 32.805375
32.795047 32.784968 32.775061 32.765279 32.755556
33.133333 33.150063 33.166879 33.183882 33.201144 33.218778 33.236839 33.255454
33.274657 33.294589 33.315264 33.336831 33.359287 33.382788 33.407312 33.433020
33.459869 33.488027 33.517428 33.548245 33.580390 33.614039 33.649081 33.685692
33.723741 33.763405 33.804527 33.847285 33.891499 33.937346 33.984624 34.033505
34.083768 34.135580 34.188699 34.243288 34.299087 34.356251 34.414503 34.473994
34.534430 34.595955 34.658263 34.721490 34.785319 34.849881 34.914849 34.980347
35.046044 35.112059 35.178055 35.244147 35.309998 35.375719 35.440976 35.505875
35.570089 35.633719 35.696447 35.758372 35.819188 35.878990 35.937485 35.994768
36.050560 36.104954 36.157689 36.208856 36.258212 36.305844 36.351531 36.395357
36.437120 36.476900 36.514517 36.550046 36.583328 36.614432 36.643220 36.669754
36.693918 36.715765 36.735202 36.752271 36.766901 36.779123 36.788887 36.796215
36.801075 36.803479 36.803418 36.800889 36.795904 36.788450 36.778560 36.766209
36.751449 36.734246 36.714673 36.692686 36.668379 36.641698 36.612760 36.581501
36.548059 36.512365 36.474577 36.434621 36.392677 36.348664 36.302784 36.254952
36.205391 36.154013 36.101060 36.046442 35.990420 35.932902 35.874165 35.814115
35.753048 35.690865 35.627874 35.563978 35.499495 35.434322 35.368789 35.302791
35.236660 35.170289 35.104015 35.037723 34.971751 34.905981 34.840747 34.775925
34.711843 34.648371 34.585829 34.524081 34.463436 34.403750 34.345321 34.287997
34.232061 34.177356 34.124145 34.072269 34.021970 33.973084 33.925835 33.880052
33.835941 33.793326 33.752390 33.712958 33.675190 33.638907 33.604250 33.571040
33.539393 33.509133 33.480354 33.452882 33.426790 33.401906 33.378283 33.355754
33.334350 33.313911 33.294448 33.275809 33.257985 33.240832 33.224324 33.208327
33.192796 33.177609 33.162703 33.147971 33.133333
33.511111 33.533521 33.556057 33.578823 33.601965 33.625564 33.649784 33.674683
33.700440 33.727090 33.754823 33.783649 33.813772 33.845174 33.878069 33.912412
33.948425 33.986033 34.025466 34.066621 34.109730 34.154662 34.201651 34.250536
34.301554 34.354511 34.409645 34.466732 34.526008 34.587219 34.650596 34.715859
34.783233 34.852410 34.923608 34.996493 35.071278 35.147603 35.225672 35.305106
35.386097 35.468248 35.551743 35.636167 35.721696 35.807902 35.894953 35.982410
36.070433 36.158576 36.246995 36.335240 36.423459 36.511206 36.598622 36.685267
36.771279 36.856226 36.940241 37.022906 37.104353 37.184178 37.262510 37.338965
37.413670 37.486264 37.556868 37.625148 37.691222 37.754779 37.815935 37.874407
37.930305 37.983374 38.033718 38.081111 38.125649 38.167136 38.205657 38.241046
38.273378 38.302514 38.328519 38.351282 38.370854 38.387152 38.400215 38.409986
38.416488 38.419694 38.419612 38.416240 38.409572 38.399633 38.386402 38.369932
38.350186 38.327246 38.301059 38.271738 38.239215 38.203631 38.164909 38.123215
38.078464 38.030851 37.980280 37.926976 37.870837 37.812115 37.750702 37.686879
37.620532 37.551971 37.481076 37.408184 37.333172 37.256402 37.177749 37.097594
37.015811 36.932802 36.848438 36.763136 36.676764 36.589755 36.501971 36.413854
36.325263 36.236646 36.147856 36.059343 35.970954 35.883136 35.795730 35.709178
35.623310 35.538561 35.454753 35.372307 35.291036 35.211345 35.133039 35.056502
34.981533 34.908494 34.837175 34.767913 34.700492 34.635224 34.571885 34.510762
34.451624 34.394729 34.339844 34.287198 34.236554 34.188112 34.141635 34.097292
34.054847 34.014440 33.975836 33.939148 33.904143 33.870906 33.839210 33.809111
33.780390 33.753075 33.726958 33.702039 33.678122 33.655181 33.633031 33.611624
33.590790 33.570456 33.550468 33.530731 33.511111
33.888889 33.917076 33.945407 33.974053 34.003132 34.032835 34.063253 34.094598
34.126931 34.160483 34.195281 34.231575 34.269358 34.308893 34.350140 34.393374
34.438520 34.485860 34.535284 34.587081 34.641106 34.697651 34.756532 34.818045
34.881969 34.948599 35.017678 35.089497 35.163763 35.240764 35.320168 35.402259
35.486671 35.573678 35.662882 35.754549 35.848246 35.944233 36.042048 36.141937
36.243414 36.346715 36.451329 36.557482 36.664646 36.773033 36.882102 36.992055
37.102339 37.213149 37.323925 37.434853 37.545375 37.655668 37.765178 37.874077
37.981820 38.088574 38.193807 38.297683 38.399689 38.499984 38.598079 38.694129
38.787672 38.878859 38.967256 39.053013 39.135727 39.215543 39.292091 39.365511
39.435468 39.502096 39.565095 39.624590 39.680317 39.732391 39.780585 39.825000
39.865446 39.902012 39.934540 39.963105 39.987585 40.008037 40.024374 40.036635
40.044767 40.048791 40.048688 40.044458 40.036118 40.023649 40.007100 39.986434
39.961737 39.932950 39.900196 39.863399 39.822715 39.778055 39.729611 39.677278
39.621285 39.561515 39.498233 39.431313 39.361054 39.287322 39.210452 39.130305
39.047249 38.961140 38.872380 38.780820 38.686895 38.590452 38.491955 38.391247
38.288821 38.184516 38.078846 37.971649 37.863456 37.754102 37.644133 37.533377
37.422391 37.310997 37.199758 37.088486 36.977745 36.867340 36.757829 36.649007
36.541423 36.434863 36.329859 36.226188 36.124364 36.024151 35.926043 35.829792
35.735866 35.644007 35.554654 35.467540 35.383073 35.300975 35.221622 35.144731
35.070641 34.999062 34.930299 34.864057 34.800605 34.739646 34.681411 34.625602
34.572414 34.521551 34.473170 34.426981 34.383103 34.341252 34.301512 34.263606
34.227585 34.193183 34.160414 34.129027 34.099005 34.070109 34.042291 34.015331
33.989150 33.963546 33.938414 33.913573 33.888889
34.266667 34.300737 34.334997 34.369605 34.404780 34.440646 34.477449 34.515278
34.554402 34.594874 34.636982 34.680742 34.726460 34.774111 34.824015 34.876108
34.930721 34.987747 35.047529 35.109913 35.175249 35.243340 35.314540 35.388607
35.465895 35.546118 35.629628 35.716095 35.805867 35.898568 35.994543 36.093372
36.195390 36.300138 36.407939 36.518296 36.631522 36.747081 36.865273 36.985531
37.108142 37.232507 37.358902 37.486701 37.616166 37.746654 37.878412 38.010782
38.143999 38.277395 38.411195 38.544728 38.678209 38.810968 38.943214 39.074285
39.204382 39.332859 39.459910 39.584910 39.708049 39.828724 39.947125 40.062677
40.175566 40.285252 40.391915 40.495053 40.594843 40.690820 40.783156 40.871429
40.955803 41.035896 41.111866 41.183374 41.250565 41.313146 41.371246 41.424616
41.473371 41.517303 41.556510 41.590826 41.620330 41.644898 41.664588 41.679316
41.689117 41.693950 41.693827 41.688746 41.678697 41.663719 41.643777 41.618952
41.589187 41.554605 41.515127 41.470917 41.421878 41.368215 41.309814 41.246924
41.179414 41.107577 41.031267 40.950823 40.866087 40.777441 40.684719 40.588344
40.488145 40.384584 40.277486 40.167353 40.054005 39.937982 39.819099 39.697929
39.574286 39.448772 39.321197 39.192188 39.061551 38.929935 38.797138 38.663824
38.529786 38.395696 38.261338 38.127389 37.993623 37.860713 37.728423 37.597416
37.467446 37.339160 37.212298 37.087490 36.964462 36.843819 36.725273 36.609401
36.495901 36.385317 36.277335 36.172464 36.070378 35.971546 35.875633 35.783068
35.693506 35.607335 35.524203 35.444453 35.367732 35.294337 35.223912 35.156712
35.092380 35.031127 34.972599 34.916963 34.863873 34.813450 34.765356 34.719673
34.676073 34.634595 34.594926 34.557066 34.520718 34.485844 34.452166 34.419608
34.387915 34.356977 34.326562 34.296527 34.266667
34.644444 34.684541 34.724842 34.765586 34.806941 34.849177 34.892422 34.936975
34.982923 35.030590 35.080018 35.131554 35.185195 35.241306 35.299838 35.361171
35.425206 35.492338 35.562414 35.635841 35.712414 35.792545 35.875979 35.963129
36.053688 36.148068 36.245910 36.347624 36.452798 36.561834 36.674272 36.790504
36.910021 37.033204 37.159495 37.289266 37.421912 37.557790 37.696256 37.837650
37.981292 38.127506 38.275580 38.425822 38.577492 38.730884 38.885236 39.040828
39.196884 39.353669 39.510400 39.667331 39.823677 39.979682 40.134568 40.288570
40.440923 40.591856 40.740625 40.887451 41.031617 41.173342 41.311940 41.447624
41.579747 41.708520 41.833334 41.954397 42.071146 42.183783 42.291791 42.395367
42.494042 42.588004 42.676834 42.760709 42.839262 42.912652 42.980566 43.043147
43.100128 43.151636 43.197453 43.237682 43.272158 43.300957 43.323962 43.341226
43.352678 43.358344 43.358200 43.352247 43.340506 43.322951 43.299651 43.270553
43.235774 43.195235 43.149102 43.097272 43.039958 42.977037 42.908773 42.835022
42.756097 42.671839 42.582612 42.488242 42.389145 42.285134 42.176676 42.063576
41.946349 41.824794 41.699472 41.570179 41.437520 41.301287 41.162126 41.019826
40.875071 40.727645 40.578266 40.426712 40.273730 40.119091 39.963563 39.806911
39.649916 39.492335 39.334956 39.177525 39.020830 38.864607 38.709636 38.555638
38.403380 38.252570 38.103954 37.957223 37.813097 37.671253 37.532379 37.396134
37.263172 37.133137 37.006640 36.883313 36.763722 36.647486 36.535127 36.426250
36.321329 36.219959 36.122566 36.028739 35.938850 35.852485 35.769966 35.690876
35.615485 35.543380 35.474778 35.409271 35.347027 35.287644 35.231241 35.177428
35.126273 35.077404 35.030840 34.986227 34.943538 34.902438 34.862860 34.824492
34.787223 34.750769 34.714980 34.679601 34.644444
35.022222 35.068492 35.115017 35.162011 35.209766 35.258453 35.308399 35.359728
35.412798 35.467683 35.524769 35.584080 35.646025 35.710573 35.778154 35.848683
35.922604 35.999776 36.080657 36.165045 36.253408 36.345485 36.441747 36.541875
36.646341 36.754766 36.867618 36.984459 37.105753 37.231000 37.360657 37.494167
37.631975 37.773467 37.919075 38.068133 38.221056 38.377130 38.536752 38.699162
38.864740 39.032687 39.203361 39.375932 39.550740 39.726926 39.904811 40.083517
40.263350 40.443417 40.624009 40.804231 40.984359 41.163501 41.341924 41.518745
41.694225 41.867500 42.038823 42.207357 42.373350 42.536000 42.695551 42.851239
43.003306 43.151033 43.294657 43.433510 43.567824 43.696984 43.821215 43.939959
44.053430 44.161128 44.263258 44.359374 44.449669 44.533756 44.611807 44.683495
44.748972 44.807966 44.860608 44.906679 44.946285 44.979264 45.005691 45.025459
45.038614 45.045102 45.044938 45.038122 45.024638 45.004537 44.977775 44.944456
44.904504 44.858080 44.805078 44.745715 44.679860 44.607784 44.529332 44.444834
44.354115 44.257561 44.154979 44.046815 43.932862 43.813622 43.688877 43.559188
43.424328 43.284913 43.140710 42.992388 42.839710 42.683394 42.523201 42.359893
42.193228 42.024008 41.851988 41.678005 41.501806 41.324258 41.145101 40.965221
40.784350 40.603387 40.422053 40.241250 40.060687 39.881261 39.702668 39.525793
39.350314 39.177096 39.005801 38.837267 38.671137 38.508216 38.348127 38.191639
38.038355 37.888999 37.743157 37.601506 37.463615 37.330107 37.200541 37.075483
36.954479 36.838040 36.725703 36.617921 36.514222 36.415002 36.319788 36.228913
36.141906 36.059041 35.979850 35.904551 35.832680 35.764399 35.699256 35.637354
35.578258 35.522017 35.468212 35.416839 35.367503 35.320147 35.274403 35.230164
35.187091 35.145031 35.103676 35.062831 35.022222
35.400000 35.452630 35.505527 35.558998 35.613264 35.668674 35.725396 35.783816
35.844050 35.906515 35.971271 36.038765 36.108997 36.182438 36.259026 36.339255
36.422999 36.510766 36.602366 36.698320 36.798371 36.903046 37.012022 37.125830
37.244077 37.367295 37.495024 37.627788 37.765061 37.907361 38.054094 38.205765
38.361719 38.522444 38.687224 38.856530 39.029589 39.206851 39.387490 39.571937
39.759316 39.950038 40.143184 40.339143 40.536963 40.737010 40.938306 41.141198
41.344687 41.549103 41.753438 41.958005 42.161795 42.365110 42.566947 42.767597
42.966077 43.162668 43.356414 43.547590 43.735274 43.919737 44.100098 44.276625
44.448487 44.615948 44.778230 44.935592 45.087317 45.233657 45.373956 45.508461
45.636576 45.758540 45.873821 45.982644 46.084543 46.179724 46.267788 46.348918
46.422781 46.489535 46.548908 46.601032 46.645697 46.683005 46.712805 46.735167
46.750001 46.757341 46.757157 46.749449 46.734246 46.711511 46.681334 46.643645
46.598592 46.546071 46.486294 46.419126 46.344840 46.263272 46.174760 46.079117
45.976741 45.867427 45.751638 45.629151 45.500494 45.365432 45.224556 45.077621
44.925283 44.767289 44.604357 44.436227 44.263678 44.086445 43.905361 43.720159
43.531720 43.339773 43.145243 42.947855 42.748567 42.547100 42.344438 42.140293
41.935669 41.730267 41.525100 41.319856 41.115547 40.911846 40.709756 40.508932
40.310360 40.113674 39.919833 39.728451 39.540454 39.355434 39.174274 38.996546
38.823087 38.653447 38.488410 38.327507 38.171466 38.019800 37.873177 37.731093
37.594155 37.461847 37.334709 37.212216 37.094845 36.982063 36.874280 36.770962
36.672452 36.578218 36.488537 36.402883 36.321466 36.243773 36.169950 36.099495
36.032493 35.968462 35.907425 35.848923 35.792920 35.738984 35.687022 35.636632
35.587670 35.539767 35.492726 35.446219 35.400000
35.777778 35.836955 35.896453 35.956546 36.017601 36.079835 36.143660 36.209236
36.277011 36.347085 36.419941 36.495614 36.574616 36.656915 36.743049 36.832917
36.927076 37.025353 37.128321 37.235735 37.348177 37.465328 37.587776 37.715127
37.847969 37.985832 38.129303 38.277835 38.432006 38.591198 38.755974 38.925645
39.100758 39.280554 39.465563 39.654958 39.849247 40.047542 40.250329 40.456661
40.667000 40.880350 41.097148 41.316354 41.538381 41.762154 41.988063 42.215008
42.443355 42.671990 42.901259 43.130041 43.358669 43.586023 43.812424 44.036766
44.259361 44.479127 44.696368 44.910038 45.120434 45.326555 45.528693 45.725898
45.918460 46.105487 46.287265 46.462965 46.632869 46.796216 46.953282 47.103374
47.246760 47.382819 47.511806 47.633173 47.747158 47.853284 47.951769 48.042209
48.124795 48.199193 48.265567 48.323651 48.373576 48.415144 48.448450 48.473364
48.489943 48.498121 48.497918 48.489332 48.472344 48.447018 48.413294 48.371303
48.320948 48.262425 48.195603 48.120747 48.037690 47.946767 47.847784 47.741146
47.626633 47.504721 47.375171 47.238531 47.094545 46.943833 46.786128 46.622121
46.451536 46.275135 46.092634 45.904865 45.711540 45.513552 45.310611 45.103670
44.892435 44.677910 44.459798 44.239147 44.015656 43.790406 43.563089 43.334814
43.105260 42.875552 42.645357 42.415805 42.186547 41.958705 41.731915 41.507282
41.284419 41.064408 40.846839 40.632759 40.421734 40.214770 40.011406 39.812600
39.617867 39.428108 39.242815 39.062830 38.887621 38.717966 38.553314 38.394374
38.240578 38.092565 37.949755 37.812711 37.680848 37.554653 37.433536 37.317912
37.207188 37.101706 37.000878 36.904971 36.813408 36.726383 36.643332 36.564380
36.488979 36.417185 36.348476 36.282841 36.219782 36.159227 36.100709 36.044095
35.988955 35.935095 35.882127 35.829803 35.777778
36.155556 36.221508 36.287789 36.354783 36.422760 36.492153 36.563171 36.636290
36.711657 36.789785 36.870752 36.955107 37.042856 37.134577 37.230202 37.330332
37.434823 37.544295 37.658524 37.778144 37.902849 38.033284 38.169059 38.310821
38.458098 38.611536 38.770580 38.935867 39.106760 39.283886 39.466527 39.655293
39.849388 40.049401 40.254462 40.465137 40.680484 40.901045 41.125810 41.355296
41.588432 41.825708 42.066002 42.309773 42.555857 42.804687 43.055064 43.307395
43.560460 43.814641 44.068705 44.323017 44.576340 44.829024 45.079843 45.329134
45.575693 45.819846 46.060425 46.297750 46.530694 46.759574 46.983315 47.202233
47.415315 47.622872 47.823959 48.018885 48.206778 48.387941 48.561580 48.727990
48.886455 49.037260 49.179768 49.314248 49.440143 49.557703 49.666450 49.766609
49.857778 49.940154 50.013410 50.077711 50.132805 50.178816 50.215567 50.243142
50.261435 50.270488 50.270265 50.260765 50.242024 50.213996 50.176789 50.130313
50.074748 50.009967 49.936219 49.853340 49.761655 49.660966 49.551673 49.433551
49.307076 49.171997 49.028872 48.877429 48.718306 48.551215 48.376874 48.194985
48.006345 47.810648 47.608768 47.400395 47.186475 46.966697 46.742073 46.512291
46.278425 46.040160 45.798624 45.553498 45.305953 45.055665 44.803840 44.550142
44.295802 44.040472 43.785393 43.530201 43.276138 43.022820 42.771476 42.521701
42.274701 42.030046 41.788908 41.550831 41.316945 41.086765 40.861371 40.640250
40.424422 40.213348 40.007984 39.807765 39.613577 39.424831 39.242339 39.065492
38.895026 38.730314 38.572013 38.419483 38.273299 38.132816 37.998525 37.869778
37.746985 37.629499 37.517650 37.410797 37.309190 37.212200 37.119998 37.031974
36.948221 36.868150 36.791784 36.718558 36.648423 36.580848 36.515716 36.452531
36.391111 36.331003 36.271961 36.213580 36.155556
36.533333 36.606283 36.679624 36.753687 36.828921 36.905592 36.984196 37.064933
37.148346 37.234558 37.324154 37.417183 37.514261 37.615359 37.721122 37.831437
37.946975 38.067535 38.193806 38.325502 38.463320 38.606886 38.756904 38.912909
39.075605 39.244436 39.420101 39.601952 39.790679 39.985545 40.187222 40.394887
40.609191 40.829227 41.055621 41.287385 41.525120 41.767760 42.015877 42.268337
42.525679 42.786709 43.051934 43.320105 43.591701 43.865430 44.141739 44.419306
44.698550 44.978129 45.258440 45.538132 45.817582 46.095444 46.372080 46.646162
46.918041 47.186419 47.451638 47.712445 47.969177 48.220634 48.467150 48.707590
48.942285 49.170171 49.391580 49.605524 49.812333 50.011101 50.202154 50.384669
50.558965 50.724307 50.880997 51.028391 51.166772 51.295580 51.415076 51.524786
51.624942 51.715151 51.795611 51.866012 51.926512 51.976880 52.017233 52.047417
52.067503 52.077413 52.077171 52.066775 52.046203 52.015527 51.974677 51.923805
51.862792 51.791869 51.710874 51.620119 51.519402 51.409115 51.289025 51.159605
51.020594 50.872549 50.715186 50.549150 50.374137 50.190881 49.999063 49.799506
49.591882 49.377099 49.154825 48.926050 48.690441 48.449064 48.201587 47.949147
47.691410 47.429578 47.163315 46.893877 46.620924 46.345754 46.068021 45.789055
45.508496 45.227696 44.946278 44.665599 44.385265 44.106626 43.829262 43.554507
43.281912 43.012780 42.746636 42.484737 42.226579 41.973368 41.724567 41.481323
41.243067 41.010877 40.784155 40.563906 40.349503 40.141873 39.940363 39.745816
39.557561 39.376354 39.201505 39.033684 38.872190 38.717601 38.569212 38.427511
38.291791 38.162451 38.038789 37.921117 37.808740 37.701885 37.599873 37.502847
37.410148 37.321837 37.237282 37.156465 37.078786 37.004150 36.931996 36.862155
36.794108 36.727618 36.662213 36.597592 36.533333
36.911111 36.991325 37.071935 37.153398 37.236042 37.320383 37.406677 37.495489
37.587001 37.681823 37.780057 37.882354 37.988729 38.099868 38.215700 38.336938
38.463419 38.595879 38.734060 38.878715 39.029489 39.187144 39.351229 39.522506
39.700428 39.885754 40.077836 40.277424 40.483774 40.697619 40.918118 41.145985
41.380286 41.621707 41.869225 42.123498 42.383416 42.649606 42.920878 43.197825
43.479185 43.765517 44.055494 44.349641 44.646578 44.946795 45.248874 45.553270
45.858537 46.165103 46.471504 46.778147 47.083567 47.388148 47.690440 47.990814
48.287844 48.581893 48.871576 49.157249 49.437581 49.712925 49.982016 50.245206
50.501303 50.750661 50.992171 51.226184 51.451681 51.669010 51.877243 52.076724
52.266619 52.447260 52.617909 52.778882 52.929535 53.070163 53.200213 53.319953
53.428922 53.527352 53.614870 53.691670 53.757464 53.812403 53.856281 53.889200
53.911039 53.921849 53.921588 53.910255 53.887890 53.854441 53.810027 53.754545
53.688197 53.610833 53.522739 53.423719 53.314145 53.193781 53.063090 52.921802
52.770468 52.608791 52.437416 52.256024 52.065354 51.865072 51.656011 51.437828
51.211451 50.976530 50.734085 50.483765 50.226679 49.962474 49.692343 49.415935
49.134515 48.847733 48.556921 48.261725 47.963531 47.661981 47.358501 47.052724
46.746106 46.438262 46.130663 45.822907 45.516463 45.210905 44.907689 44.606360
44.308345 44.013160 43.722192 43.434921 43.152683 42.874925 42.602920 42.336078
42.075604 41.820873 41.573012 41.331363 41.096970 40.869145 40.648842 40.435350
40.229529 40.030647 39.839469 39.655247 39.478650 39.308917 39.146623 38.991002
38.842530 38.700443 38.565121 38.435807 38.312788 38.195318 38.083593 37.976886
37.875303 37.778142 37.685422 37.596474 37.511230 37.429061 37.349818 37.272914
37.198124 37.124909 37.052973 36.981828 36.911111
37.288889 37.376622 37.464819 37.553874 37.644315 37.736461 37.830898 37.927866
38.028004 38.131467 38.238939 38.350487 38.466835 38.587958 38.714612 38.846676
38.984933 39.129161 39.280164 39.437618 39.602339 39.773899 39.953120 40.139468
40.333763 40.535367 40.745090 40.962189 41.187460 41.420053 41.660745 41.908584
42.164318 42.426898 42.697041 42.973601 43.257262 43.546787 43.842825 44.144056
44.451087 44.762527 45.078945 45.398883 45.722872 46.049405 46.378975 46.710035
47.043046 47.376437 47.710640 48.044073 48.377146 48.708283 49.037876 49.364371
49.688146 50.007686 50.323361 50.633708 50.939094 51.238121 51.531156 51.816878
52.095655 52.366253 52.629043 52.882883 53.128145 53.363784 53.590172 53.806366
54.012728 54.208419 54.393789 54.568102 54.731687 54.883909 55.025073 55.154640
55.272882 55.379358 55.474299 55.557356 55.628716 55.688119 55.735702 55.771293
55.794976 55.806663 55.806384 55.794135 55.769889 55.733730 55.685573 55.625587
55.553634 55.469973 55.374414 55.267305 55.148413 55.018178 54.876326 54.723395
54.559078 54.384010 54.197860 54.001362 53.794167 53.577113 53.349836 53.113279
52.867070 52.612255 52.348459 52.076827 51.796985 51.510173 51.216018 50.915847
50.609290 50.297750 49.980860 49.660085 49.335058 49.007297 48.676427 48.344004
48.009640 47.674916 47.339425 47.004756 46.670477 46.338170 46.007376 45.679650
45.354502 45.033451 44.715968 44.403523 44.095549 43.793453 43.496629 43.206412
42.922156 42.645115 42.374607 42.111796 41.855967 41.608190 41.367717 41.135522
40.910829 40.694512 40.485773 40.285381 40.092525 39.907868 39.730591 39.561252
39.399027 39.244373 39.096469 38.955669 38.821162 38.693202 38.570995 38.454697
38.343537 38.237576 38.136074 38.038999 37.945649 37.855903 37.769101 37.685039
37.603105 37.523014 37.444211 37.366334 37.288889
37.666667 37.762222 37.858241 37.955262 38.053670 38.154068 38.256761 38.362408
38.471227 38.583931 38.700644 38.822125 38.948402 39.080271 39.217659 39.361395
39.511301 39.668229 39.831894 40.003163 40.181643 40.368209 40.562355 40.764958
40.975399 41.194549 41.421675 41.657634 41.901579 42.154349 42.414985 42.684298
42.961221 43.246533 43.539061 43.839549 44.146721 44.461283 44.781865 45.109131
45.441625 45.779968 46.122629 46.470185 46.821043 47.175736 47.532623 47.892199
48.252788 48.614850 48.976690 49.338738 49.699300 50.058783 50.415507 50.769864
51.120205 51.466913 51.808390 52.145012 52.475246 52.799469 53.116225 53.425897
53.727115 54.020267 54.304083 54.578954 54.843716 55.098759 55.343029 55.576915
55.799471 56.011079 56.210903 56.399309 56.575572 56.740034 56.892076 57.032009
57.159317 57.274274 57.376463 57.466113 57.542902 57.607007 57.658202 57.696607
57.722085 57.734698 57.734400 57.721189 57.695110 57.656101 57.604293 57.539567
57.462146 57.371852 57.269004 57.153372 57.025370 56.884724 56.731948 56.566730
56.389686 56.200473 55.999815 55.787346 55.563900 55.329094 55.083874 54.827849
54.562076 54.286160 54.001268 53.707009 53.404653 53.093814 52.775860 52.450411
52.118925 51.781025 51.438249 51.090219 50.738538 50.382826 50.024735 49.663875
49.301932 48.938501 48.575284 48.211854 47.849911 47.488999 47.130804 46.774834
46.422741 46.073995 45.730199 45.390782 45.057286 44.729097 44.407682 44.092383
43.784585 43.483587 43.190682 42.905129 42.628121 42.358881 42.098499 41.846165
41.602861 41.367750 41.141705 40.923867 40.714997 40.514221 40.322190 40.138022
39.962255 39.794006 39.633704 39.480473 39.334633 39.195321 39.062751 38.936082
38.815424 38.699965 38.589715 38.483896 38.382422 38.284560 38.190128 38.098444
38.009238 37.921881 37.836022 37.751094 37.666667
38.044444 38.148104 38.252303 38.357501 38.464310 38.573106 38.684566 38.798975
38.917071 39.039041 39.165675 39.297061 39.434032 39.576571 39.725548 39.880837
40.043335 40.212805 40.390165 40.575060 40.768422 40.969778 41.180064 41.398685
41.626576 41.863020 42.108939 42.363497 42.627594 42.900276 43.182416 43.472940
43.772691 44.080477 44.397103 44.721268 45.053734 45.393093 45.740062 46.093138
46.452989 46.818025 47.188864 47.563842 47.943530 48.326202 48.712384 49.100305
49.490450 49.881017 50.272457 50.662958 51.052943 51.440605 51.826348 52.208391
52.587126 52.960815 53.329843 53.692536 54.049280 54.398477 54.740517 55.073896
55.399008 55.714453 56.020634 56.316260 56.601739 56.875898 57.139146 57.390429
57.630154 57.857384 58.072517 58.274732 58.464408 58.640842 58.804384 58.954440