# vtk DataFile Version 3.0
Steady-state temperature (Jacobi)
ASCII
DATASET STRUCTURED_POINTS
DIMENSIONS 181 181 1
ORIGIN 0.0 0.0 0.0
SPACING 0.05 0.05 1.0
POINT_DATA 32761
SCALARS Temperature float 1
LOOKUP_TABLE default
32.000000 32.000000 32.000000 32.000000 32.000000 32.000000 32.000000 32.000000
32.000000 32.000000 32.000000 32.000000 32.000000 32.000000 32.000000 32.000000
32.000000 32.000000 32.000000 32.000000 32.000000 32.000000 32.000000 32.000000
32.000000 32.000000 32.000000 32.000000 32.000000 32.000000 32.000000 32.000000
32.000000 32.000000 32.000000 32.000000 32.000000 32.000000 32.000000 32.000000
32.000000 32.000000 32.000000 32.000000 32.000000 32.000000 32.000000 32.000000
32.000000 32.000000 32.000000 32.000000 32.000000 32.000000 32.000000 32.000000
32.000000 32.000000 32.000000 32.000000 32.000000 32.000000 32.000000 32.000000
32.000000 32.000000 32.000000 32.000000 32.000000 32.000000 32.000000 32.000000
32.000000 32.000000 32.000000 32.000000 32.000000 32.000000 32.000000 32.000000
32.000000 32.000000 32.000000 32.000000 32.000000 32.000000 32.000000 32.000000
32.000000 32.000000 32.000000 32.000000 32.000000 32.000000 32.000000 32.000000
32.000000 32.000000 32.000000 32.000000 32.000000 32.000000 32.000000 32.000000
32.000000 32.000000 32.000000 32.000000 32.000000 32.000000 32.000000 32.000000
32.000000 32.000000 32.000000 32.000000 32.000000 32.000000 32.000000 32.000000
32.000000 32.000000 32.000000 32.000000 32.000000 32.000000 32.000000 32.000000
32.000000 32.000000 32.000000 32.000000 32.000000 32.000000 32.000000 32.000000
32.000000 32.000000 32.000000 32.000000 32.000000 32.000000 32.000000 32.000000
32.000000 32.000000 32.000000 32.000000 32.000000 32.000000 32.000000 32.000000
32.000000 32.000000 32.000000 32.000000 32.000000 32.000000 32.000000 32.000000
32.000000 32.000000 32.000000 32.000000 32.000000 32.000000 32.000000 32.000000
32.000000 32.000000 32.000000 32.000000 32.000000 32.000000 32.000000 32.000000
32.000000 32.000000 32.000000 32.000000 32.000000
32.377778 32.356497 32.335322 32.314358 32.293705 32.273460 32.253713 32.234549
32.216042 32.198259 32.181257 32.165083 32.149772 32.135351 32.121836 32.109233
32.097539 32.086742 32.076824 32.067758 32.059513 32.052052 32.045334 32.039315
32.033951 32.029193 32.024995 32.021309 32.018090 32.015294 32.012876 32.010798
32.009021 32.007511 32.006234 32.005161 32.004265 32.003524 32.002913 32.002416
32.002014 32.001694 32.001442 32.001250 32.001104 32.001001 32.000929 32.000888
32.000867 32.000868 32.000883 32.000913 32.000950 32.000999 32.001052 32.001113
32.001175 32.001243 32.001309 32.001380 32.001448 32.001520 32.001587 32.001656
32.001720 32.001785 32.001845 32.001904 32.001958 32.002012 32.002060 32.002107
32.002149 32.002189 32.002224 32.002258 32.002287 32.002315 32.002338 32.002360
32.002379 32.002396 32.002410 32.002422 32.002432 32.002440 32.002447 32.002452
32.002455 32.002456 32.002456 32.002455 32.002452 32.002447 32.002440 32.002432
32.002422 32.002410 32.002396 32.002379 32.002360 32.002338 32.002315 32.002287
32.002258 32.002224 32.002189 32.002149 32.002107 32.002060 32.002012 32.001958
32.001904 32.001844 32.001784 32.001719 32.001655 32.001585 32.001518 32.001446
32.001377 32.001305 32.001237 32.001167 32.001103 32.001039 32.000983 32.000929
32.000885 32.000846 32.000822 32.000808 32.000812 32.000833 32.000880 32.000953
32.001061 32.001209 32.001406 32.001660 32.001984 32.002387 32.002888 32.003501
32.004246 32.005143 32.006219 32.007497 32.009010 32.010788 32.012868 32.015286
32.018084 32.021304 32.024990 32.029189 32.033947 32.039313 32.045332 32.052050
32.059512 32.067757 32.076823 32.086741 32.097538 32.109232 32.121836 32.135351
32.149772 32.165083 32.181257 32.198259 32.216042 32.234549 32.253713 32.273460
32.293705 32.314358 32.335322 32.356497 32.377778
32.755556 32.712994 32.670645 32.628716 32.587410 32.546919 32.507426 32.469098
32.432084 32.396519 32.362515 32.330166 32.299544 32.270702 32.243672 32.218466
32.195077 32.173484 32.153648 32.135517 32.119027 32.104105 32.090669 32.078632
32.067903 32.058387 32.049992 32.042621 32.036184 32.030591 32.025758 32.021602
32.018050 32.015029 32.012477 32.010332 32.008544 32.007061 32.005844 32.004849
32.004051 32.003412 32.002914 32.002529 32.002245 32.002039 32.001904 32.001822
32.001791 32.001793 32.001833 32.001892 32.001979 32.002077 32.002195 32.002316
32.002453 32.002588 32.002735 32.002877 32.003026 32.003168 32.003315 32.003452
32.003592 32.003722 32.003852 32.003971 32.004090 32.004196 32.004301 32.004395
32.004486 32.004566 32.004643 32.004710 32.004774 32.004829 32.004880 32.004924
32.004964 32.004997 32.005028 32.005052 32.005074 32.005091 32.005104 32.005114
32.005121 32.005124 32.005124 32.005121 32.005114 32.005104 32.005091 32.005074
32.005052 32.005028 32.004997 32.004964 32.004924 32.004880 32.004829 32.004774
32.004710 32.004643 32.004566 32.004486 32.004395 32.004301 32.004196 32.004089
32.003971 32.003852 32.003721 32.003591 32.003450 32.003312 32.003165 32.003022
32.002871 32.002727 32.002578 32.002439 32.002297 32.002169 32.002044 32.001936
32.001836 32.001760 32.001700 32.001672 32.001670 32.001713 32.001798 32.001943
32.002153 32.002447 32.002836 32.003343 32.003985 32.004793 32.005790 32.007015
32.008502 32.010297 32.012444 32.015001 32.018025 32.021581 32.025739 32.030575
32.036170 32.042610 32.049982 32.058380 32.067896 32.078627 32.090664 32.104101
32.119024 32.135514 32.153646 32.173483 32.195076 32.218465 32.243671 32.270702
32.299544 32.330165 32.362515 32.396519 32.432084 32.469097 32.507426 32.546919
32.587410 32.628716 32.670645 32.712994 32.755556
33.133333 33.069492 33.005967 32.943074 32.881114 32.820379 32.761139 32.703646
32.648126 32.594778 32.543773 32.495249 32.449317 32.406054 32.365508 32.327699
32.292617 32.260227 32.230473 32.203277 32.178542 32.156159 32.136006 32.117951
32.101858 32.087586 32.074993 32.063939 32.054284 32.045897 32.038648 32.032418
32.027091 32.022565 32.018739 32.015528 32.012847 32.010630 32.008806 32.007326
32.006130 32.005184 32.004441 32.003878 32.003456 32.003163 32.002966 32.002861
32.002819 32.002845 32.002909 32.003022 32.003158 32.003330 32.003512 32.003721
32.003932 32.004162 32.004387 32.004627 32.004856 32.005096 32.005321 32.005553
32.005768 32.005986 32.006185 32.006386 32.006567 32.006746 32.006907 32.007064
32.007203 32.007338 32.007456 32.007569 32.007666 32.007758 32.007836 32.007910
32.007971 32.008028 32.008074 32.008115 32.008148 32.008176 32.008197 32.008213
32.008224 32.008229 32.008229 32.008224 32.008213 32.008197 32.008176 32.008148
32.008115 32.008074 32.008028 32.007971 32.007910 32.007836 32.007758 32.007666
32.007569 32.007456 32.007338 32.007203 32.007064 32.006907 32.006746 32.006566
32.006385 32.006184 32.005984 32.005766 32.005550 32.005317 32.005091 32.004850
32.004618 32.004375 32.004146 32.003910 32.003693 32.003474 32.003280 32.003093
32.002938 32.002800 32.002705 32.002641 32.002634 32.002679 32.002802 32.003003
32.003313 32.003740 32.004320 32.005068 32.006029 32.007230 32.008724 32.010554
32.012782 32.015467 32.018688 32.022518 32.027052 32.032383 32.038619 32.045871
32.054263 32.063920 32.074978 32.087573 32.101848 32.117942 32.135999 32.156153
32.178537 32.203273 32.230470 32.260225 32.292615 32.327697 32.365507 32.406053
32.449316 32.495248 32.543772 32.594778 32.648126 32.703646 32.761139 32.820379
32.881114 32.943074 33.005967 33.069492 33.133333
33.511111 33.425989 33.341290 33.257432 33.174819 33.093838 33.014852 32.938195
32.864169 32.793038 32.725030 32.660332 32.599089 32.541406 32.487345 32.436933
32.390157 32.346971 32.307300 32.271038 32.238059 32.208216 32.181346 32.157274
32.135819 32.116791 32.100002 32.085265 32.072396 32.061215 32.051555 32.043251
32.036156 32.030125 32.025033 32.020756 32.017195 32.014244 32.011828 32.009860
32.008285 32.007033 32.006065 32.005324 32.004789 32.004410 32.004179 32.004052
32.004032 32.004079 32.004205 32.004371 32.004595 32.004840 32.005128 32.005423
32.005750 32.006074 32.006421 32.006757 32.007109 32.007444 32.007789 32.008113
32.008442 32.008746 32.009052 32.009330 32.009608 32.009858 32.010104 32.010322
32.010535 32.010722 32.010903 32.011059 32.011208 32.011336 32.011456 32.011557
32.011651 32.011729 32.011800 32.011857 32.011908 32.011946 32.011979 32.012001
32.012017 32.012024 32.012024 32.012017 32.012001 32.011979 32.011946 32.011908
32.011857 32.011800 32.011729 32.011651 32.011557 32.011456 32.011336 32.011208
32.011059 32.010903 32.010722 32.010535 32.010322 32.010103 32.009857 32.009607
32.009330 32.009050 32.008744 32.008439 32.008109 32.007785 32.007437 32.007100
32.006745 32.006405 32.006052 32.005721 32.005385 32.005077 32.004773 32.004508
32.004259 32.004060 32.003893 32.003794 32.003749 32.003796 32.003927 32.004185
32.004571 32.005131 32.005880 32.006870 32.008131 32.009727 32.011703 32.014136
32.017095 32.020671 32.024955 32.030059 32.036097 32.043202 32.051511 32.061179
32.072364 32.085239 32.099979 32.116772 32.135803 32.157262 32.181335 32.208207
32.238052 32.271032 32.307295 32.346967 32.390154 32.436930 32.487343 32.541404
32.599088 32.660331 32.725030 32.793037 32.864168 32.938195 33.014852 33.093838
33.174819 33.257432 33.341290 33.425989 33.511111
33.888889 33.782486 33.676613 33.571790 33.468524 33.367298 33.268566 33.172744
33.080211 32.991298 32.906288 32.825416 32.748862 32.676758 32.609183 32.546168
32.487698 32.433717 32.384128 32.338802 32.297580 32.260277 32.226691 32.196604
32.169786 32.146005 32.125022 32.106605 32.090522 32.076554 32.064483 32.054114
32.045250 32.037725 32.031367 32.026039 32.021596 32.017931 32.014922 32.012491
32.010537 32.009005 32.007813 32.006928 32.006279 32.005852 32.005586 32.005482
32.005483 32.005602 32.005788 32.006061 32.006371 32.006747 32.007139 32.007581
32.008023 32.008502 32.008969 32.009462 32.009935 32.010426 32.010888 32.011361
32.011801 32.012246 32.012654 32.013062 32.013431 32.013797 32.014124 32.014444
32.014727 32.015001 32.015240 32.015469 32.015666 32.015854 32.016012 32.016161
32.016285 32.016399 32.016493 32.016577 32.016643 32.016700 32.016742 32.016776
32.016796 32.016807 32.016807 32.016796 32.016776 32.016742 32.016700 32.016643
32.016577 32.016493 32.016399 32.016285 32.016161 32.016012 32.015854 32.015666
32.015469 32.015240 32.015001 32.014727 32.014444 32.014123 32.013796 32.013430
32.013061 32.012652 32.012244 32.011798 32.011357 32.010882 32.010417 32.009924
32.009447 32.008948 32.008475 32.007987 32.007533 32.007076 32.006664 32.006263
32.005920 32.005606 32.005369 32.005185 32.005103 32.005108 32.005249 32.005524
32.005986 32.006645 32.007564 32.008768 32.010330 32.012296 32.014754 32.017774
32.021462 32.025915 32.031262 32.037629 32.045171 32.054041 32.064424 32.076500
32.090479 32.106567 32.124990 32.145977 32.169764 32.196585 32.226676 32.260265
32.297570 32.338794 32.384121 32.433711 32.487694 32.546164 32.609180 32.676756
32.748861 32.825415 32.906287 32.991297 33.080210 33.172744 33.268565 33.367298
33.468524 33.571790 33.676612 33.782486 33.888889
34.266667 34.138983 34.011935 33.886148 33.762229 33.640758 33.522279 33.407293
33.296254 33.189558 33.087547 32.990500 32.898636 32.812111 32.731022 32.655404
32.585241 32.520464 32.460959 32.406569 32.357104 32.312343 32.272043 32.235940
32.203764 32.175229 32.150057 32.127961 32.108671 32.091915 32.077444 32.065009
32.054391 32.045371 32.037765 32.031385 32.026085 32.021704 32.018132 32.015236
32.012938 32.011126 32.009752 32.008721 32.008009 32.007533 32.007290 32.007206
32.007293 32.007483 32.007800 32.008177 32.008651 32.009156 32.009733 32.010319
32.010959 32.011590 32.012261 32.012909 32.013586 32.014228 32.014889 32.015507
32.016135 32.016715 32.017298 32.017829 32.018356 32.018831 32.019298 32.019713
32.020117 32.020472 32.020814 32.021110 32.021393 32.021634 32.021861 32.022053
32.022231 32.022378 32.022511 32.022619 32.022714 32.022787 32.022848 32.022891
32.022920 32.022934 32.022934 32.022920 32.022891 32.022848 32.022787 32.022714
32.022619 32.022511 32.022378 32.022231 32.022053 32.021861 32.021634 32.021393
32.021110 32.020814 32.020472 32.020117 32.019713 32.019297 32.018830 32.018355
32.017827 32.017296 32.016712 32.016131 32.015502 32.014882 32.014218 32.013572
32.012891 32.012237 32.011557 32.010916 32.010261 32.009658 32.009057 32.008522
32.008009 32.007582 32.007204 32.006937 32.006752 32.006716 32.006810 32.007102
32.007591 32.008351 32.009397 32.010815 32.012643 32.014980 32.017892 32.021498
32.025893 32.031223 32.037616 32.045246 32.054277 32.064914 32.077359 32.091846
32.108609 32.127911 32.150012 32.175194 32.203733 32.235916 32.272022 32.312326
32.357090 32.406558 32.460950 32.520457 32.585235 32.655399 32.731018 32.812108
32.898634 32.990498 33.087545 33.189557 33.296253 33.407293 33.522279 33.640758
33.762229 33.886148 34.011935 34.138983 34.266667
34.644444 34.495480 34.347258 34.200506 34.055934 33.914218 33.775992 33.641843
33.512296 33.387818 33.268806 33.155585 33.048411 32.947466 32.852861 32.764642
32.682786 32.607215 32.537793 32.474341 32.416634 32.364417 32.317402 32.275289
32.237753 32.204471 32.175109 32.149343 32.126846 32.107314 32.090442 32.075957
32.063584 32.053090 32.044236 32.036832 32.030672 32.025610 32.021473 32.018156
32.015512 32.013473 32.011915 32.010800 32.010023 32.009570 32.009348 32.009366
32.009537 32.009887 32.010332 32.010914 32.011548 32.012286 32.013045 32.013884
32.014719 32.015614 32.016484 32.017399 32.018274 32.019178 32.020030 32.020900
32.021709 32.022524 32.023272 32.024018 32.024695 32.025363 32.025961 32.026545
32.027061 32.027560 32.027997 32.028413 32.028773 32.029113 32.029402 32.029672
32.029897 32.030104 32.030274 32.030426 32.030546 32.030649 32.030726 32.030786
32.030823 32.030843 32.030843 32.030823 32.030786 32.030726 32.030649 32.030546
32.030426 32.030274 32.030104 32.029897 32.029672 32.029402 32.029113 32.028773
32.028413 32.027996 32.027560 32.027061 32.026544 32.025960 32.025362 32.024694
32.024017 32.023270 32.022520 32.021704 32.020894 32.020022 32.019167 32.018258
32.017378 32.016456 32.015576 32.014668 32.013817 32.012957 32.012170 32.011396
32.010717 32.010078 32.009561 32.009120 32.008837 32.008678 32.008726 32.008965
32.009482 32.010280 32.011456 32.013036 32.015130 32.017796 32.021163 32.025320
32.030424 32.036603 32.044043 32.052914 32.063437 32.075824 32.090332 32.107216
32.126766 32.149272 32.175052 32.204421 32.237713 32.275254 32.317375 32.364393
32.416615 32.474325 32.537781 32.607205 32.682778 32.764635 32.852856 32.947462
33.048408 33.155582 33.268804 33.387817 33.512295 33.641842 33.775992 33.914217
34.055934 34.200506 34.347258 34.495480 34.644444
35.022222 34.851978 34.682580 34.514864 34.349639 34.187678 34.029706 33.876392
33.728340 33.586079 33.450065 33.320670 33.198186 33.082821 32.974703 32.873882
32.780334 32.693969 32.614633 32.542118 32.476172 32.416498 32.362774 32.314649
32.271761 32.233732 32.200190 32.170753 32.145062 32.122753 32.103498 32.086962
32.072858 32.060890 32.050819 32.042388 32.035410 32.029666 32.025015 32.021274
32.018347 32.016078 32.014410 32.013209 32.012453 32.012021 32.011920 32.012038
32.012404 32.012912 32.013610 32.014391 32.015319 32.016287 32.017369 32.018455
32.019630 32.020782 32.022000 32.023174 32.024393 32.025550 32.026736 32.027847
32.028971 32.030010 32.031050 32.032000 32.032941 32.033789 32.034620 32.035361
32.036079 32.036711 32.037317 32.037844 32.038344 32.038773 32.039176 32.039515
32.039829 32.040090 32.040326 32.040517 32.040684 32.040814 32.040921 32.040996
32.041048 32.041072 32.041072 32.041048 32.040996 32.040921 32.040814 32.040684
32.040517 32.040326 32.040090 32.039829 32.039515 32.039176 32.038773 32.038344
32.037844 32.037317 32.036711 32.036078 32.035360 32.034619 32.033788 32.032939
32.031998 32.031048 32.030007 32.028966 32.027840 32.026727 32.025537 32.024375
32.023149 32.021968 32.020739 32.019572 32.018379 32.017267 32.016154 32.015146
32.014167 32.013320 32.012540 32.011928 32.011432 32.011154 32.011057 32.011245
32.011703 32.012542 32.013772 32.015516 32.017816 32.020812 32.024583 32.029294
32.035066 32.042095 32.050550 32.060664 32.072653 32.086791 32.103345 32.122628
32.144950 32.170662 32.200110 32.233668 32.271705 32.314605 32.362736 32.416468
32.476146 32.542098 32.614616 32.693956 32.780323 32.873873 32.974696 33.082816
33.198182 33.320667 33.450062 33.586077 33.728338 33.876391 34.029705 34.187677
34.349639 34.514864 34.682580 34.851978 35.022222
35.400000 35.208475 35.017903 34.829223 34.643344 34.461138 34.283420 34.110942
33.944383 33.784341 33.631325 33.485757 33.347963 33.218179 33.096547 32.983125
32.877886 32.780728 32.691477 32.609903 32.535717 32.468592 32.408159 32.354030
32.305789 32.263023 32.225299 32.192206 32.163320 32.138255 32.116616 32.098056
32.082220 32.068813 32.057523 32.048113 32.040314 32.033946 32.028779 32.024687
32.021474 32.019063 32.017283 32.016101 32.015363 32.015073 32.015089 32.015443
32.016001 32.016820 32.017765 32.018913 32.020129 32.021504 32.022902 32.024423
32.025929 32.027529 32.029084 32.030707 32.032259 32.033856 32.035363 32.036894
32.038319 32.039751 32.041068 32.042376 32.043564 32.044733 32.045781 32.046801
32.047706 32.048576 32.049339 32.050065 32.050693 32.051284 32.051788 32.052256
32.052649 32.053008 32.053303 32.053566 32.053775 32.053954 32.054087 32.054191
32.054255 32.054289 32.054289 32.054255 32.054191 32.054087 32.053954 32.053775
32.053566 32.053303 32.053008 32.052649 32.052256 32.051788 32.051284 32.050693
32.050065 32.049339 32.048576 32.047705 32.046801 32.045780 32.044732 32.043563
32.042374 32.041065 32.039747 32.038313 32.036886 32.035352 32.033841 32.032239
32.030680 32.029047 32.027480 32.025864 32.024337 32.022788 32.021355 32.019935
32.018661 32.017439 32.016401 32.015466 32.014762 32.014227 32.013987 32.014003
32.014406 32.015181 32.016469 32.018290 32.020797 32.024051 32.028228 32.033433
32.039875 32.047709 32.057181 32.068501 32.081959 32.097821 32.116421 32.138082
32.163178 32.192080 32.225197 32.262934 32.305718 32.353968 32.408110 32.468550
32.535685 32.609876 32.691456 32.780710 32.877872 32.983113 33.096538 33.218171
33.347958 33.485753 33.631322 33.784338 33.944381 34.110941 34.283419 34.461137
34.643344 34.829222 35.017903 35.208475 35.400000
35.777778 35.564972 35.353226 35.143581 34.937050 34.734599 34.537134 34.345493
34.160428 33.982603 33.812586 33.650845 33.497742 33.353538 33.218394 33.092371
32.975442 32.867492 32.768330 32.677697 32.595277 32.520700 32.453564 32.393430
32.339848 32.292344 32.250455 32.213704 32.181646 32.153823 32.129830 32.109245
32.091716 32.076868 32.064412 32.054021 32.045468 32.038473 32.032874 32.028427
32.025031 32.022474 32.020706 32.019537 32.018963 32.018809 32.019108 32.019694
32.020631 32.021754 32.023153 32.024660 32.026386 32.028160 32.030106 32.032051
32.034130 32.036166 32.038302 32.040360 32.042487 32.044508 32.046570 32.048503
32.050452 32.052258 32.054057 32.055704 32.057328 32.058796 32.060229 32.061509
32.062745 32.063835 32.064877 32.065785 32.066643 32.067381 32.068070 32.068653
32.069191 32.069637 32.070041 32.070367 32.070653 32.070875 32.071057 32.071186
32.071274 32.071316 32.071316 32.071274 32.071186 32.071057 32.070875 32.070653
32.070367 32.070041 32.069637 32.069191 32.068653 32.068070 32.067381 32.066643
32.065785 32.064877 32.063835 32.062745 32.061508 32.060228 32.058795 32.057327
32.055702 32.054054 32.052253 32.050446 32.048494 32.046558 32.044492 32.042465
32.040330 32.038261 32.036112 32.034058 32.031955 32.029980 32.027994 32.026170
32.024380 32.022791 32.021289 32.020037 32.018938 32.018151 32.017603 32.017452
32.017654 32.018370 32.019593 32.021493 32.024105 32.027620 32.032119 32.037823
32.044867 32.053508 32.063944 32.076474 32.091359 32.108947 32.129563 32.153603
32.181451 32.213545 32.250316 32.292231 32.339750 32.393352 32.453497 32.520647
32.595232 32.677662 32.768301 32.867469 32.975423 33.092357 33.218382 33.353529
33.497734 33.650839 33.812582 33.982600 34.160425 34.345491 34.537133 34.734598
34.937049 35.143580 35.353225 35.564972 35.777778
36.155556 35.921470 35.688549 35.457939 35.230755 35.008059 34.790849 34.580044
34.376472 34.180866 33.993849 33.815934 33.647522 33.488900 33.340244 33.201623
33.073004 32.954265 32.845192 32.745504 32.654849 32.572828 32.498990 32.432863
32.373938 32.321713 32.275658 32.235274 32.200041 32.169494 32.143144 32.120578
32.101354 32.085125 32.071500 32.060202 32.050892 32.043366 32.037330 32.032648
32.029064 32.026505 32.024742 32.023758 32.023341 32.023522 32.024098 32.025140
32.026448 32.028125 32.029968 32.032107 32.034332 32.036794 32.039278 32.041949
32.044586 32.047368 32.050067 32.052870 32.055552 32.058300 32.060895 32.063521
32.065970 32.068420 32.070678 32.072913 32.074946 32.076939 32.078730 32.080467
32.082009 32.083489 32.084787 32.086019 32.087086 32.088087 32.088942 32.089735
32.090400 32.091007 32.091505 32.091949 32.092302 32.092604 32.092829 32.093003
32.093112 32.093169 32.093169 32.093112 32.093003 32.092829 32.092604 32.092302
32.091949 32.091505 32.091007 32.090400 32.089735 32.088942 32.088087 32.087086
32.086019 32.084786 32.083488 32.082008 32.080466 32.078729 32.076938 32.074945
32.072910 32.070674 32.068415 32.065963 32.063511 32.060881 32.058282 32.055528
32.052837 32.050023 32.047308 32.044507 32.041844 32.039139 32.036612 32.034094
32.031798 32.029569 32.027613 32.025793 32.024308 32.023044 32.022195 32.021679
32.021687 32.022173 32.023335 32.025172 32.027894 32.031551 32.036377 32.042482
32.050133 32.059505 32.070908 32.084588 32.100903 32.120173 32.142807 32.169194
32.199795 32.235057 32.275482 32.321560 32.373815 32.432757 32.498906 32.572756
32.654793 32.745456 32.845155 32.954233 33.072980 33.201603 33.340229 33.488888
33.647513 33.815927 33.993843 34.180862 34.376469 34.580041 34.790847 35.008058
35.230754 35.457939 35.688548 35.921470 36.155556
36.533333 36.277967 36.023872 35.772298 35.524461 35.281521 35.044564 34.814595
34.592518 34.379130 34.175113 33.981026 33.797306 33.624266 33.462099 33.310880
33.170575 33.041045 32.922067 32.813325 32.714443 32.624978 32.544449 32.472328
32.408079 32.351131 32.300936 32.256916 32.218545 32.185270 32.156612 32.132062
32.111209 32.093594 32.078884 32.066675 32.056716 32.048654 32.042317 32.037394
32.033787 32.031220 32.029661 32.028853 32.028826 32.029333 32.030454 32.031943
32.033922 32.036143 32.038760 32.041518 32.044598 32.047734 32.051130 32.054510
32.058094 32.061599 32.065255 32.068778 32.072403 32.075849 32.079352 32.082641
32.085944 32.089008 32.092053 32.094842 32.097585 32.100067 32.102482 32.104642
32.106721 32.108558 32.110309 32.111835 32.113274 32.114513 32.115666 32.116644
32.117542 32.118289 32.118962 32.119508 32.119985 32.120355 32.120658 32.120872
32.121020 32.121089 32.121089 32.121020 32.120872 32.120658 32.120355 32.119985
32.119508 32.118962 32.118289 32.117542 32.116644 32.115666 32.114513 32.113274
32.111835 32.110309 32.108558 32.106721 32.104641 32.102481 32.100065 32.097583
32.094839 32.092049 32.089003 32.085937 32.082630 32.079338 32.075830 32.072376
32.068742 32.065206 32.061534 32.058007 32.054395 32.050979 32.047535 32.044339
32.041181 32.038326 32.035584 32.033208 32.031035 32.029304 32.027886 32.027014
32.026594 32.026858 32.027762 32.029542 32.032207 32.036012 32.041030 32.047542
32.055691 32.065799 32.078085 32.092918 32.110599 32.131553 32.156157 32.184893
32.218212 32.256644 32.300697 32.350939 32.407912 32.472195 32.544335 32.624887
32.714366 32.813265 32.922016 33.041006 33.170542 33.310855 33.462079 33.624251
33.797293 33.981016 34.175105 34.379125 34.592514 34.814592 35.044562 35.281519
35.524460 35.772297 36.023871 36.277967 36.533333
36.911111 36.634465 36.359195 36.086657 35.818168 35.554982 35.298280 35.049148
34.808565 34.577397 34.356379 34.146120 33.947093 33.759637 33.583959 33.420145
33.268153 33.127840 32.998955 32.881167 32.774058 32.677161 32.589940 32.511844
32.442269 32.380626 32.326287 32.278670 32.237158 32.201208 32.170239 32.143777
32.121288 32.102381 32.086581 32.073583 32.062968 32.054523 32.047876 32.042901
32.039263 32.036916 32.035552 32.035193 32.035545 32.036693 32.038345 32.040639
32.043275 32.046438 32.049814 32.053623 32.057540 32.061812 32.066098 32.070668
32.075171 32.079892 32.084473 32.089208 32.093741 32.098366 32.102739 32.107149
32.111267 32.115374 32.119162 32.122900 32.126307 32.129633 32.132628 32.135521
32.138095 32.140556 32.142718 32.144764 32.146538 32.148198 32.149616 32.150927
32.152030 32.153032 32.153856 32.154589 32.155172 32.155668 32.156039 32.156326
32.156506 32.156600 32.156600 32.156506 32.156326 32.156039 32.155668 32.155172
32.154589 32.153856 32.153032 32.152030 32.150927 32.149616 32.148198 32.146538
32.144764 32.142718 32.140556 32.138094 32.135520 32.132626 32.129631 32.126305
32.122897 32.119158 32.115368 32.111259 32.107138 32.102724 32.098345 32.093712
32.089168 32.084421 32.079821 32.075077 32.070543 32.065934 32.061596 32.057259
32.053259 32.049343 32.045833 32.042502 32.039655 32.037100 32.035125 32.033581
32.032745 32.032516 32.033170 32.034664 32.037282 32.041046 32.046263 32.053029
32.061683 32.072406 32.085579 32.101473 32.120525 32.143092 32.169670 32.200702
32.236741 32.278304 32.325990 32.380367 32.442061 32.511665 32.589798 32.677039
32.773962 32.881086 32.998892 33.127787 33.268112 33.420111 33.583934 33.759616
33.947077 34.146107 34.356369 34.577389 34.808560 35.049143 35.298277 35.554980
35.818166 36.086656 36.359194 36.634464 36.911111
37.288889 36.990962 36.694518 36.401016 36.111874 35.828444 35.551997 35.283701
35.024614 34.775664 34.537648 34.311217 34.096884 33.895012 33.705828 33.529418
33.365745 33.214647 33.075865 32.949029 32.833706 32.729376 32.635484 32.551410
32.476538 32.410197 32.351756 32.300538 32.255940 32.217311 32.184108 32.155726
32.131706 32.111500 32.094743 32.080946 32.069847 32.061009 32.054267 32.049228
32.045821 32.043682 32.042825 32.042900 32.043999 32.045773 32.048378 32.051459
32.055227 32.059310 32.063966 32.068804 32.074118 32.079497 32.085265 32.090993
32.097026 32.102925 32.109048 32.114951 32.121000 32.126758 32.132588 32.138068
32.143555 32.148650 32.153696 32.158326 32.162862 32.166975 32.170962 32.174533
32.177960 32.180991 32.183870 32.186384 32.188746 32.190782 32.192672 32.194276
32.195745 32.196968 32.198068 32.198960 32.199738 32.200342 32.200837 32.201185
32.201425 32.201539 32.201539 32.201425 32.201185 32.200837 32.200342 32.199738
32.198960 32.198068 32.196968 32.195745 32.194276 32.192672 32.190782 32.188746
32.186384 32.183870 32.180991 32.177959 32.174532 32.170961 32.166973 32.162860
32.158323 32.153692 32.148644 32.143546 32.138056 32.132571 32.126735 32.120969
32.114909 32.108991 32.102849 32.096925 32.090859 32.085089 32.079266 32.073816
32.068412 32.063459 32.058659 32.054394 32.050399 32.047037 32.044085 32.041884
32.040264 32.039555 32.039647 32.040868 32.043177 32.046912 32.052114 32.059144
32.068132 32.079477 32.093405 32.110367 32.130686 32.154872 32.183346 32.216680
32.255383 32.300082 32.351357 32.409874 32.476259 32.551187 32.635293 32.729224
32.833578 32.948929 33.075780 33.214582 33.365691 33.529376 33.705794 33.894986
34.096863 34.311202 34.537635 34.775655 35.024606 35.283696 35.551992 35.828441
36.111872 36.401015 36.694517 36.990962 37.288889
37.666667 37.347460 37.029841 36.715376 36.405581 36.101907 35.805714 35.518256
35.240664 34.973935 34.718919 34.476319 34.246680 34.030395 33.827704 33.638704
33.463349 33.301476 33.152794 33.016925 32.893387 32.781643 32.681077 32.591056
32.510883 32.439886 32.377338 32.322580 32.274891 32.233665 32.198221 32.168032
32.142471 32.121111 32.103387 32.088982 32.077386 32.068393 32.061542 32.056735
32.053543 32.051969 32.051602 32.052535 32.054360 32.057251 32.060788 32.065213
32.070088 32.075712 32.081619 32.088160 32.094839 32.102043 32.109254 32.116888
32.124407 32.132246 32.139858 32.147692 32.155199 32.162831 32.170055 32.177315
32.184103 32.190850 32.197082 32.203211 32.208804 32.214246 32.219153 32.223878
32.228087 32.232098 32.235626 32.238953 32.241842 32.244536 32.246842 32.248965
32.250754 32.252374 32.253710 32.254892 32.255835 32.256635 32.257234 32.257696
32.257987 32.258138 32.258138 32.257987 32.257696 32.257234 32.256635 32.255835
32.254892 32.253710 32.252374 32.250754 32.248965 32.246842 32.244536 32.241842
32.238953 32.235626 32.232097 32.228086 32.223877 32.219151 32.214244 32.208801
32.203207 32.197077 32.190843 32.184093 32.177302 32.170037 32.162807 32.155166
32.147646 32.139798 32.132164 32.124298 32.116744 32.109065 32.101795 32.094514
32.087739 32.081076 32.075014 32.069195 32.064078 32.059351 32.055442 32.052094
32.049711 32.048099 32.047646 32.048235 32.050251 32.053661 32.058862 32.065918
32.075252 32.087031 32.101725 32.119607 32.141203 32.166897 32.197275 32.232827
32.274200 32.321974 32.376844 32.439457 32.510537 32.590759 32.680840 32.781442
32.893228 33.016791 33.152690 33.301389 33.463282 33.638648 33.827661 34.030361
34.246654 34.476298 34.718903 34.973922 35.240655 35.518249 35.805709 36.101903
36.405579 36.715374 37.029840 37.347459 37.666667
38.044444 37.703958 37.365165 37.029736 36.699289 36.375371 36.059433 35.752812
35.456716 35.172207 34.900195 34.641425 34.396484 34.165786 33.949592 33.748001
33.560974 33.388324 33.229757 33.084853 32.953119 32.833960 32.726750 32.630778
32.545348 32.469691 32.403100 32.344793 32.294102 32.250271 32.212704 32.180696
32.153753 32.131228 32.112744 32.097714 32.085885 32.076721 32.070090 32.065495
32.062921 32.061890 32.062496 32.064263 32.067382 32.071362 32.076480 32.082219
32.088930 32.096060 32.104021 32.112224 32.121130 32.130115 32.139677 32.149164
32.159103 32.168822 32.178867 32.188561 32.198457 32.207887 32.217402 32.226358
32.235294 32.243603 32.251804 32.259339 32.266697 32.273375 32.279830 32.285617
32.291152 32.296054 32.300694 32.304751 32.308550 32.311828 32.314861 32.317439