# vtk DataFile Version 3.0
Steady-state temperature (Jacobi)
ASCII
DATASET STRUCTURED_POINTS
DIMENSIONS 181 181 1
ORIGIN 0.0 0.0 0.0
SPACING 0.05 0.05 1.0
POINT_DATA 32761
SCALARS Temperature float 1
LOOKUP_TABLE default
32.000000 32.000000 32.000000 32.000000 32.000000 32.000000 32.000000 32.000000
32.000000 32.000000 32.000000 32.000000 32.000000 32.000000 32.000000 32.000000
32.000000 32.000000 32.000000 32.000000 32.000000 32.000000 32.000000 32.000000
32.000000 32.000000 32.000000 32.000000 32.000000 32.000000 32.000000 32.000000
32.000000 32.000000 32.000000 32.000000 32.000000 32.000000 32.000000 32.000000
32.000000 32.000000 32.000000 32.000000 32.000000 32.000000 32.000000 32.000000
32.000000 32.000000 32.000000 32.000000 32.000000 32.000000 32.000000 32.000000
32.000000 32.000000 32.000000 32.000000 32.000000 32.000000 32.000000 32.000000
32.000000 32.000000 32.000000 32.000000 32.000000 32.000000 32.000000 32.000000
32.000000 32.000000 32.000000 32.000000 32.000000 32.000000 32.000000 32.000000
32.000000 32.000000 32.000000 32.000000 32.000000 32.000000 32.000000 32.000000
32.000000 32.000000 32.000000 32.000000 32.000000 32.000000 32.000000 32.000000
32.000000 32.000000 32.000000 32.000000 32.000000 32.000000 32.000000 32.000000
32.000000 32.000000 32.000000 32.000000 32.000000 32.000000 32.000000 32.000000
32.000000 32.000000 32.000000 32.000000 32.000000 32.000000 32.000000 32.000000
32.000000 32.000000 32.000000 32.000000 32.000000 32.000000 32.000000 32.000000
32.000000 32.000000 32.000000 32.000000 32.000000 32.000000 32.000000 32.000000
32.000000 32.000000 32.000000 32.000000 32.000000 32.000000 32.000000 32.000000
32.000000 32.000000 32.000000 32.000000 32.000000 32.000000 32.000000 32.000000
32.000000 32.000000 32.000000 32.000000 32.000000 32.000000 32.000000 32.000000
32.000000 32.000000 32.000000 32.000000 32.000000 32.000000 32.000000 32.000000
32.000000 32.000000 32.000000 32.000000 32.000000 32.000000 32.000000 32.000000
32.000000 32.000000 32.000000 32.000000 32.000000
32.377778 32.409439 32.441102 32.472771 32.504449 32.536137 32.567839 32.599557
32.631293 32.663048 32.694825 32.726625 32.758448 32.790296 32.822168 32.854064
32.885984 32.917926 32.949889 32.981871 33.013867 33.045877 33.077893 33.109914
33.141931 33.173941 33.205935 33.237906 33.269845 33.301745 33.333593 33.365380
33.397094 33.428723 33.460253 33.491671 33.522962 33.554111 33.585101 33.615917
33.646538 33.676950 33.707132 33.737066 33.766730 33.796107 33.825175 33.853913
33.882301 33.910317 33.937941 33.965150 33.991925 34.018243 34.044085 34.069430
34.094256 34.118546 34.142280 34.165439 34.188004 34.209960 34.231288 34.251973
34.272000 34.291355 34.310024 34.327994 34.345253 34.361791 34.377597 34.392662
34.406977 34.420534 34.433326 34.445348 34.456592 34.467055 34.476730 34.485616
34.493707 34.501002 34.507498 34.513192 34.518082 34.522168 34.525449 34.527922
34.529589 34.530447 34.530498 34.529742 34.528178 34.525808 34.522632 34.518651
34.513867 34.508281 34.501895 34.494713 34.486735 34.477966 34.468410 34.458070
34.446952 34.435059 34.422400 34.408979 34.394805 34.379886 34.364229 34.347846
34.330746 34.312940 34.294442 34.275262 34.255416 34.234917 34.213782 34.192026
34.169667 34.146720 34.123206 34.099142 34.074548 34.049444 34.023850 33.997786
33.971275 33.944336 33.916991 33.889261 33.861168 33.832732 33.803976 33.774918
33.745582 33.715985 33.686149 33.656092 33.625833 33.595390 33.564781 33.534022
33.503130 33.472120 33.441008 33.409806 33.378529 33.347187 33.315794 33.284359
33.252893 33.221405 33.189904 33.158395 33.126889 33.095388 33.063901 33.032429
33.000980 32.969554 32.938156 32.906787 32.875449 32.844143 32.812870 32.781628
32.750419 32.719241 32.688093 32.656973 32.625880 32.594812 32.563765 32.532737
32.501725 32.470726 32.439738 32.408756 32.377778
32.755556 32.818878 32.882206 32.945545 33.008901 33.072279 33.135685 33.199122
33.262595 33.326107 33.389664 33.453265 33.516914 33.580612 33.644360 33.708156
33.772001 33.835890 33.899822 33.963790 34.027790 34.091815 34.155857 34.219905
34.283950 34.347977 34.411976 34.475928 34.539819 34.603629 34.667339 34.730926
34.794369 34.857640 34.920717 34.983569 35.046169 35.108483 35.170483 35.232131
35.293395 35.354237 35.414622 35.474508 35.533860 35.592634 35.650791 35.708289
35.765087 35.821140 35.876410 35.930850 35.984421 36.037078 36.088783 36.139491
36.189165 36.237764 36.285250 36.331585 36.376734 36.420661 36.463334 36.504719
36.544788 36.583511 36.620861 36.656812 36.691343 36.724428 36.756050 36.786187
36.814825 36.841946 36.867537 36.891585 36.914079 36.935008 36.954364 36.972138
36.988324 37.002916 37.015909 37.027298 37.037081 37.045254 37.051816 37.056763
37.060096 37.061814 37.061916 37.060403 37.057275 37.052534 37.046180 37.038218
37.028648 37.017474 37.004701 36.990333 36.974375 36.956835 36.937718 36.917034
36.894791 36.871002 36.845676 36.818828 36.790472 36.760624 36.729302 36.696526
36.662314 36.626692 36.589680 36.551309 36.511602 36.470590 36.428303 36.384775
36.340038 36.294128 36.247079 36.198933 36.149725 36.099497 36.048287 35.996141
35.943095 35.889196 35.834484 35.779004 35.722795 35.665903 35.608367 35.550233
35.491538 35.432325 35.372631 35.312498 35.251960 35.191056 35.129819 35.068285
35.006484 34.944449 34.882207 34.819790 34.757219 34.694524 34.631724 34.568843
34.505899 34.442913 34.379899 34.316874 34.253851 34.190843 34.127859 34.064911
34.002005 33.939149 33.876347 33.813605 33.750924 33.688308 33.625757 33.563272
33.500851 33.438493 33.376195 33.313954 33.251766 33.189628 33.127533 33.065476
33.003452 32.941454 32.879477 32.817513 32.755556
33.133333 33.228319 33.323313 33.418324 33.513361 33.608431 33.703542 33.798701
33.893914 33.989188 34.084527 34.179936 34.275416 34.370972 34.466601 34.562306
34.658083 34.753929 34.849839 34.945807 35.041822 35.137877 35.233957 35.330051
35.426139 35.522205 35.618227 35.714183 35.810047 35.905793 36.001388 36.096804
36.192002 36.286949 36.381601 36.475922 36.569861 36.663379 36.756421 36.848942
36.940885 37.032199 37.122825 37.212708 37.301785 37.390001 37.477289 37.563592
37.648840 37.732977 37.815933 37.897649 37.978056 38.057097 38.134704 38.210819
38.285378 38.358326 38.429601 38.499150 38.566915 38.632849 38.696896 38.759013
38.819151 38.877269 38.933325 38.987283 39.039104 39.088758 39.136212 39.181440
39.224415 39.265115 39.303517 39.339603 39.373355 39.404760 39.433803 39.460472
39.484758 39.506652 39.526146 39.543235 39.557913 39.570175 39.580019 39.587442
39.592443 39.595019 39.595173 39.592902 39.588209 39.581095 39.571563 39.559615
39.545257 39.528492 39.509327 39.487769 39.463825 39.437505 39.408821 39.377783
39.344408 39.308708 39.270705 39.230414 39.187862 39.143068 39.096063 39.046871
38.995528 38.942064 38.886517 38.828924 38.769330 38.707773 38.644305 38.578969
38.511821 38.442909 38.372291 38.300021 38.226162 38.150767 38.073903 37.995628
37.916009 37.835104 37.752984 37.669707 37.585342 37.499948 37.413593 37.326336
37.238243 37.149370 37.059781 36.969530 36.878677 36.787272 36.695373 36.603026
36.510285 36.417190 36.323791 36.230125 36.136236 36.042157 35.947927 35.853573
35.759131 35.664623 35.570079 35.475517 35.380962 35.286428 35.191936 35.097495
35.003122 34.908822 34.814607 34.720481 34.626451 34.532517 34.438683 34.344947
34.251309 34.157766 34.064315 33.970949 33.877664 33.784452 33.691308 33.598220
33.505183 33.412185 33.319217 33.226270 33.133333
33.511111 33.637762 33.764425 33.891110 34.017830 34.144595 34.271416 34.398301
34.525260 34.652300 34.779429 34.906651 35.033972 35.161392 35.288916 35.416539
35.544262 35.672078 35.799984 35.927966 36.056018 36.184122 36.312265 36.440425
36.568585 36.696715 36.824793 36.952783 37.080656 37.208371 37.335894 37.463175
37.590175 37.716837 37.843116 37.968950 38.094285 38.219054 38.343198 38.466643
38.589327 38.711168 38.832099 38.952037 39.070908 39.188625 39.305112 39.420280
39.534049 39.646330 39.757042 39.866094 39.973407 40.078890 40.182465 40.284044
40.383552 40.480903 40.576026 40.668840 40.759277 40.847263 40.932736 41.015627
41.095879 41.173431 41.248233 41.320229 41.389376 41.455626 41.518943 41.579285
41.636622 41.690919 41.742151 41.790291 41.835318 41.877210 41.915951 41.951525
41.983920 42.013123 42.039125 42.061917 42.081494 42.097848 42.110977 42.120877
42.127546 42.130983 42.131187 42.128158 42.121898 42.112410 42.099696 42.083761
42.064609 42.042248 42.016684 41.987928 41.955989 41.920881 41.882616 41.841213
41.796688 41.749064 41.698362 41.644611 41.587836 41.528074 41.465355 41.399721
41.331210 41.259872 41.185749 41.108898 41.029369 40.947226 40.862524 40.775335
40.685720 40.593755 40.499508 40.403061 40.304485 40.203867 40.101282 39.996820
39.890558 39.782588 39.672989 39.561855 39.449263 39.335307 39.220065 39.103626
38.986068 38.867477 38.747928 38.627503 38.506273 38.384316 38.261696 38.138488
38.014751 37.890552 37.765944 37.640989 37.515735 37.390237 37.264534 37.138676
37.012697 36.886639 36.760531 36.634408 36.508291 36.382211 36.256184 36.130234
36.004371 35.878614 35.752968 35.627446 35.502051 35.376790 35.251661 35.126668
35.001804 34.877071 34.752459 34.627964 34.503577 34.379290 34.255092 34.130973
34.006919 33.882919 33.758960 33.635029 33.511111
33.888889 34.047208 34.205542 34.363906 34.522313 34.680777 34.839311 34.997928
35.156638 35.315453 35.474378 35.633425 35.792594 35.951894 36.111322 36.270882
36.430566 36.590374 36.750293 36.910316 37.070425 37.230609 37.390842 37.551105
37.711367 37.871603 38.031772 38.191842 38.351766 38.511504 38.671000 38.830206
38.989058 39.147502 39.305463 39.462881 39.619673 39.775770 39.931082 40.085534
40.239028 40.391483 40.542795 40.692876 40.841618 40.988928 41.134694 41.278820
41.421191 41.561709 41.700258 41.836739 41.971037 42.103053 42.232674 42.359805
42.484335 42.606173 42.725213 42.841370 42.954544 43.064655 43.171613 43.275342
43.375761 43.472804 43.566397 43.656483 43.742995 43.825886 43.905098 43.980591
44.052316 44.120241 44.184325 44.244542 44.300861 44.353259 44.401713 44.446205
44.486719 44.523240 44.555757 44.584260 44.608740 44.629191 44.645608 44.657988
44.666326 44.670623 44.670877 44.667089 44.659261 44.647396 44.631497 44.611568
44.587618 44.559653 44.527684 44.491719 44.451775 44.407864 44.360006 44.308218
44.252526 44.192952 44.129530 44.062286 43.991263 43.916494 43.838028 43.755908
43.670191 43.580926 43.488181 43.392013 43.292498 43.189702 43.083709 42.974593
42.862447 42.747351 42.629405 42.508697 42.385331 42.259402 42.131018 42.000277
41.867293 41.732165 41.595008 41.455922 41.315024 41.172412 41.028201 40.882489
40.735388 40.586991 40.437406 40.286723 40.135044 39.982453 39.829047 39.674901
39.520106 39.364731 39.208858 39.052550 38.895880 38.738901 38.581681 38.424264
38.266709 38.109054 37.951347 37.793620 37.635913 37.478249 37.320664 37.163171
37.005799 36.848557 36.691464 36.534525 36.377752 36.221145 36.064711 35.908446
35.752349 35.596414 35.440636 35.285005 35.129512 34.974143 34.818889 34.663733
34.508662 34.353658 34.198706 34.043789 33.888889
34.266667 34.456658 34.646667 34.836712 35.026810 35.216978 35.407232 35.597587
35.788057 35.978652 36.169387 36.360267 36.551302 36.742492 36.933846 37.125357
37.317027 37.508845 37.700807 37.892895 38.085098 38.277391 38.469755 38.662156
38.854569 39.046950 39.239266 39.431464 39.623502 39.815316 40.006855 40.198047
40.388830 40.579122 40.768852 40.957927 41.146269 41.333774 41.520354 41.705897
41.890308 42.073467 42.255270 42.435589 42.614316 42.791318 42.966480 43.139665
43.310756 43.479613 43.646116 43.810127 43.971525 44.130173 44.285953 44.438730
44.588390 44.734804 44.877865 45.017448 45.153453 45.285766 45.414294 45.538931
45.659595 45.776191 45.888644 45.996871 46.100808 46.200383 46.295542 46.386221
46.472378 46.553960 46.630930 46.703248 46.770885 46.833808 46.891994 46.945419
46.994065 47.037916 47.076958 47.111178 47.140569 47.165121 47.184831 47.199691
47.209702 47.214859 47.215163 47.210615 47.201216 47.186970 47.167881 47.143955
47.115199 47.081623 47.043236 47.000053 46.952087 46.899359 46.841886 46.779694
46.712808 46.641261 46.565084 46.484318 46.399003 46.309191 46.214928 46.116276
46.013292 45.906048 45.794611 45.679066 45.559486 45.435968 45.308597 45.177478
45.042705 44.904395 44.762648 44.617588 44.469325 44.317989 44.163694 44.006577
43.846754 43.684367 43.519533 43.352395 43.183071 43.011703 42.838407 42.663323
42.486565 42.308266 42.128536 41.947503 41.765271 41.581960 41.397667 41.212504
41.026558 40.839934 40.652711 40.464982 40.276817 40.088299 39.899490 39.710462
39.521267 39.331967 39.142605 38.953235 38.763887 38.574608 38.385420 38.196358
38.007440 37.818691 37.630119 37.441745 37.253569 37.065603 36.877844 36.690296
36.502950 36.315806 36.128850 35.942076 35.755469 35.569016 35.382699 35.196505
35.010412 34.824402 34.638455 34.452550 34.266667
34.644444 34.866111 35.087799 35.309530 35.531324 35.753202 35.975181 36.197282
36.419519 36.641908 36.864460 37.087190 37.310102 37.533205 37.756499 37.979988
38.203664 38.427526 38.651556 38.875748 39.100076 39.324524 39.549056 39.773650
39.998258 40.222848 40.447363 40.671761 40.895972 41.119943 41.343594 41.566860
41.789651 42.011889 42.233472 42.454313 42.674296 42.893324 43.111272 43.328031
43.543465 43.757458 43.969864 44.180557 44.389386 44.596219 44.800897 45.003283
45.203215 45.400553 45.595134 45.786815 45.975434 46.160852 46.342907 46.521463
46.696366 46.867483 47.034668 47.197797 47.356730 47.511354 47.661540 47.807184
47.948170 48.084406 48.215788 48.342234 48.463654 48.579979 48.691132 48.797054
48.897680 48.992964 49.082853 49.167308 49.246287 49.319761 49.387698 49.450076
49.506869 49.558064 49.603640 49.643588 49.677895 49.706556 49.729560 49.746906
49.758589 49.764608 49.764962 49.759652 49.748680 49.732049 49.709766 49.681835
49.648266 49.609067 49.564253 49.513836 49.457836 49.396268 49.329162 49.256538
49.178433 49.094876 49.005911 48.911578 48.811932 48.707020 48.596910 48.481661
48.361351 48.236052 48.105855 47.970843 47.831120 47.686781 47.537943 47.384712
47.227216 47.065571 46.899918 46.730380 46.557108 46.380232 46.199909 46.016276
45.829495 45.639707 45.447075 45.251741 45.053870 44.853604 44.651103 44.446508
44.239975 44.031639 43.821651 43.610139 43.397247 43.183092 42.967813 42.751516
42.534329 42.316348 42.097690 41.878441 41.658705 41.438558 41.218093 40.997372
40.776478 40.555462 40.334395 40.113317 39.892286 39.671334 39.450508 39.229830
39.009336 38.789039 38.568966 38.349123 38.129526 37.910173 37.691075 37.472223
37.253618 37.035248 36.817108 36.599179 36.381452 36.163906 35.946525 35.729286
35.512169 35.295150 35.078207 34.861313 34.644444
35.022222 35.275568 35.528940 35.782360 36.035856 36.289448 36.543162 36.797015
37.051030 37.305221 37.559608 37.814199 38.069009 38.324040 38.579302 38.834789
39.090505 39.346435 39.602577 39.858905 40.115407 40.372049 40.628809 40.885641
41.142514 41.399368 41.656161 41.912822 42.169295 42.425497 42.681359 42.936785
43.191692 43.445971 43.699527 43.952237 44.203992 44.454657 44.704112 44.952207
45.198813 45.443768 45.686932 45.928135 46.167228 46.404031 46.638390 46.870120
47.099060 47.325024 47.547847 47.767342 47.983347 48.195674 48.404164 48.608634
48.808931 49.004879 49.196332 49.383125 49.565119 49.742163 49.914129 50.080877
50.242295 50.398257 50.548662 50.693401 50.832387 50.965524 51.092741 51.213956
51.329111 51.438137 51.540990 51.637613 51.727971 51.812021 51.889737 51.961084
52.026045 52.084595 52.136720 52.182404 52.221638 52.254410 52.280716 52.300550
52.313908 52.320789 52.321192 52.315118 52.302570 52.283551 52.258067 52.226125
52.187733 52.142903 52.091646 52.033982 51.969925 51.899501 51.822732 51.739652
51.650290 51.554691 51.452892 51.344951 51.230914 51.110852 50.984825 50.852915
50.715197 50.571767 50.422714 50.268149 50.108174 49.942916 49.772490 49.597036
49.416683 49.231586 49.041882 48.847739 48.649304 48.446753 48.240242 48.029955
47.816051 47.598719 47.378121 47.154449 46.927864 46.698556 46.466685 46.232438
45.995970 45.757462 45.517061 45.274940 45.031240 44.786121 44.539715 44.292173
44.043612 43.794172 43.543958 43.293096 43.041679 42.789820 42.537598 42.285112
42.032429 41.779634 41.526781 41.273942 41.021158 40.768489 40.515965 40.263633
40.011512 39.759638 39.508021 39.256685 39.005631 38.754874 38.504409 38.254239
38.004354 37.754749 37.505407 37.256318 37.007460 36.758817 36.510363 36.262078
36.013933 35.765904 35.517961 35.270077 35.022222
35.400000 35.685029 35.970087 36.255203 36.540404 36.825719 37.111171 37.396788
37.682589 37.968598 38.254829 38.541302 38.828025 39.115011 39.402260 39.689780
39.977561 40.265604 40.553887 40.842403 41.131119 41.420018 41.709054 41.998198
42.287392 42.576594 42.865733 43.154752 43.443567 43.732107 44.020270 44.307974
44.595100 44.881551 45.167193 45.451915 45.735567 46.018023 46.299119 46.578716
46.856638 47.132730 47.406805 47.678699 47.948213 48.215175 48.479378 48.740642
48.998757 49.253538 49.504770 49.752270 49.995823 50.235246 50.470329 50.700893
50.926736 51.147686 51.363550 51.574165 51.779352 51.978961 52.172826 52.360811
52.542766 52.718570 52.888091 53.051224 53.207852 53.357888 53.501233 53.637813
53.767547 53.890375 54.006231 54.115069 54.216837 54.311499 54.399014 54.479359
54.552502 54.618427 54.677111 54.728543 54.772710 54.809603 54.839214 54.861539
54.876574 54.884317 54.884769 54.877930 54.863803 54.842391 54.813701 54.777739
54.734516 54.684041 54.626331 54.561399 54.489269 54.409961 54.323507 54.229933
54.129284 54.021595 53.906922 53.785311 53.656833 53.521547 53.379538 53.230881
53.075677 52.914014 52.746013 52.571778 52.391445 52.205135 52.013001 51.815179
51.611838 51.403127 51.189231 50.970311 50.746562 50.518156 50.285299 50.048169
49.806979 49.561912 49.313184 49.060980 48.805515 48.546974 48.285571 48.021485
47.754923 47.486059 47.215094 46.942190 46.667537 46.391289 46.113623 45.834679
45.554622 45.273577 44.991696 44.709088 44.425890 44.142198 43.858131 43.573771
43.289222 43.004551 42.719846 42.435161 42.150568 41.866108 41.581840 41.297790
41.014005 40.730501 40.447309 40.164437 39.881904 39.599707 39.317857 39.036343
38.755164 38.474303 38.193753 37.913488 37.633494 37.353744 37.074215 36.794877
36.515703 36.236660 35.957717 35.678842 35.400000
35.777778 36.094493 36.411242 36.728056 37.044969 37.362010 37.679212 37.996598
38.314199 38.632034 38.950130 39.268498 39.587159 39.906118 40.225388 40.544965
40.864854 41.185040 41.505518 41.826261 42.147255 42.468458 42.789845 43.111359
43.432962 43.754582 44.076166 44.397627 44.718896 45.039869 45.360461 45.680550
46.000037 46.318780 46.636664 46.953532 47.269249 47.583642 47.896561 48.207817
48.517246 48.824643 49.129830 49.432592 49.732738 50.030041 50.324303 50.615290
50.902796 51.186583 51.466442 51.742133 52.013449 52.280151 52.542036 52.798871
53.050458 53.296576 53.537038 53.771632 54.000185 54.222501 54.438422 54.647770
54.850402 55.046160 55.234919 55.416540 55.590917 55.757930 55.917491 56.069500
56.213885 56.350565 56.479483 56.600574 56.713795 56.819097 56.916446 57.005807
57.087158 57.160470 57.225730 57.282920 57.332029 57.373048 57.405970 57.430789
57.447503 57.456110 57.456609 57.449003 57.433293 57.409485 57.377582 57.337595
57.289528 57.233399 57.169217 57.097003 57.016775 56.928562 56.832387 56.728292
56.616309 56.496492 56.368884 56.233554 56.090561 55.939987 55.781907 55.616423
55.443625 55.263636 55.076562 54.882546 54.681713 54.474225 54.260225 54.039893
53.813389 53.580911 53.342633 53.098769 52.849507 52.595070 52.335657 52.071503
51.802811 51.529823 51.252745 50.971821 50.687258 50.399298 50.108146 49.814038
49.517173 49.217779 48.916045 48.612191 48.306394 47.998859 47.689751 47.379260
47.067537 46.754756 46.441050 46.126578 45.811456 45.495825 45.179784 44.863457
44.546927 44.230299 43.913641 43.597041 43.280551 42.964243 42.648154 42.332341
42.016828 41.701655 41.386836 41.072398 40.758343 40.444685 40.131416 39.818541
39.506043 39.193916 38.882137 38.570690 38.259547 37.948687 37.638074 37.327682
37.017474 36.707417 36.397473 36.087607 35.777778
36.155556 36.503960 36.852402 37.200920 37.549547 37.898322 38.247276 38.596444
38.945852 39.295532 39.645502 39.995790 40.346406 40.697370 41.048683 41.400358
41.752385 42.104765 42.457476 42.810509 43.163828 43.517412 43.871208 44.225181
44.579264 44.933405 45.287519 45.641539 45.995360 46.348899 46.702032 47.054656
47.406630 47.757831 48.108098 48.457292 48.805230 49.151755 49.496666 49.839790
50.180909 50.519831 50.856325 51.190184 51.521163 51.849046 52.173575 52.494526
52.811636 53.124673 53.433370 53.737496 54.036784 54.331002 54.619891 54.903225
55.180751 55.452254 55.717494 55.976269 56.228354 56.473562 56.711689 56.942566
57.166008 57.381866 57.589977 57.790213 57.982434 58.166531 58.342387 58.509913
58.669012 58.819614 58.961641 59.095040 59.219750 59.335732 59.442941 59.541349
59.630922 59.711644 59.783490 59.846451 59.900510 59.945662 59.981898 60.009215
60.027609 60.037080 60.037627 60.029252 60.011958 59.985747 59.950627 59.906603
59.853687 59.791887 59.721221 59.641703 59.553359 59.456209 59.350289 59.235628
59.112276 58.980273 58.839684 58.690563 58.532991 58.367039 58.192810 58.010391
57.819904 57.621459 57.415199 57.201254 56.979790 56.750955 56.514939 56.271911
56.022078 55.765629 55.502790 55.233764 54.958795 54.678097 54.391927 54.100509
53.804108 53.502954 53.197316 52.887427 52.573556 52.255933 51.934825 51.610456
51.283085 50.952929 50.620236 50.285210 49.948087 49.609056 49.268337 48.926104
48.582560 48.237861 47.892191 47.545688 47.198516 46.850795 46.502670 46.154241
45.805634 45.456930 45.108237 44.759618 44.411162 44.062916 43.714950 43.367296
43.020008 42.673104 42.326621 41.980566 41.634960 41.289799 40.945092 40.600824
40.256993 39.913576 39.570560 39.227914 38.885618 38.543636 38.201938 37.860486
37.519245 37.178172 36.837228 36.496370 36.155556
36.533333 36.913429 37.293567 37.673788 38.054136 38.434647 38.815364 39.196318
39.577548 39.959080 40.340947 40.723167 41.105767 41.488756 41.872152 42.255952
42.640165 43.024776 43.409781 43.795151 44.180870 44.566891 44.953186 45.339689
45.726356 46.113102 46.499866 46.886544 47.273055 47.659276 48.045104 48.430395
48.815028 49.198835 49.581675 49.963359 50.343725 50.722563 51.099690 51.474877
51.847923 52.218579 52.586628 52.951805 53.313878 53.672568 54.027632 54.378782
54.725766 55.068289 55.406096 55.738891 56.066417 56.388383 56.704535 57.014588
57.318300 57.615397 57.905649 58.188798 58.464629 58.732907 58.993434 59.245996
59.490420 59.726514 59.954127 60.173093 60.383285 60.584562 60.776818 60.959936
61.133834 61.298416 61.453619 61.599370 61.735620 61.862313 61.979418 62.086893
62.184717 62.272860 62.351311 62.420049 62.479069 62.528358 62.567914 62.597731
62.617807 62.628142 62.628736 62.619590 62.600706 62.572091 62.533746 62.485681
62.427902 62.360424 62.283255 62.196419 62.099931 61.993822 61.878117 61.752860
61.618086 61.473854 61.320213 61.157242 60.985005 60.803600 60.613113 60.413664
60.205359 59.988344 59.762746 59.528736 59.286466 59.036129 58.777901 58.512000
58.238623 57.958009 57.670374 57.375979 57.075054 56.767875 56.454687 56.135777
55.811398 55.481845 55.147374 54.808284 54.464832 54.117313 53.765981 53.411124
53.052987 52.691850 52.327946 51.961541 51.592853 51.222132 50.849578 50.475424
50.099851 49.723070 49.345245 48.966564 48.587168 48.207228 47.826862 47.446218
47.065395 46.684518 46.303667 45.922947 45.542419 45.162166 44.782232 44.402683
44.023544 43.644865 43.266656 42.888949 42.511743 42.135054 41.758869 41.383192
41.007998 40.633280 40.259006 39.885156 39.511693 39.138588 38.765797 38.393287
38.021009 37.648922 37.276978 36.905132 36.533333
36.911111 37.322898 37.734731 38.146660 38.558728 38.970982 39.383463 39.796216
40.209273 40.622675 41.036449 41.450628 41.865229 42.280278 42.695779 43.111751
43.528184 43.945084 44.362427 44.780206 45.198380 45.616927 46.035788 46.454925
46.874259 47.293732 47.713245 48.132721 48.552039 48.971099 49.389757 49.807893
50.225337 50.641948 51.057532 51.471924 51.884907 52.296292 52.705841 53.113344
53.518540 53.921198 54.321039 54.717815 55.111228 55.501018 55.886872 56.268518
56.645637 57.017946 57.385124 57.746885 58.102908 58.452911 58.796576 59.133630
59.463766 59.786722 60.102208 60.409977 60.709760 61.001330 61.284441 61.558890
61.824456 62.080962 62.328214 62.566061 62.794338 63.012919 63.221666 63.420479
63.609247 63.787890 63.956323 64.114486 64.262313 64.399764 64.526790 64.643364
64.749453 64.845040 64.930102 65.004633 65.068617 65.122051 65.164929 65.197248
65.219007 65.230206 65.230846 65.220927 65.200453 65.169427 65.127854 65.075739
65.013092 64.939919 64.856238 64.762061 64.657412 64.542311 64.416795 64.280893
64.134659 63.978134 63.811389 63.634484 63.447510 63.250548 63.043712 62.827105
62.600869 62.365130 62.120058 61.865805 61.602568 61.330527 61.049904 60.760905
60.463779 60.158753 59.846100 59.526068 59.198950 58.865008 58.524553 58.177858
57.825244 57.466993 57.103430 56.734839 56.361546 55.983833 55.602020 55.216383
54.827234 54.434834 54.039484 53.641431 53.240956 52.838291 52.433697 52.027385
51.619595 51.210515 50.800364 50.389306 49.977537 49.565197 49.152458 48.739438
48.326284 47.913093 47.499988 47.087044 46.674362 46.261998 45.850030 45.438495
45.027454 44.616925 44.206949 43.797531 43.388695 42.980431 42.572747 42.165624
41.759055 41.353010 40.947471 40.542399 40.137766 39.733528 39.329646 38.926072
38.522761 38.119660 37.716721 37.313889 36.911111
37.288889 37.732365 38.175894 38.619527 39.063319 39.507316 39.951569 40.396121
40.841020 41.286299 41.732002 42.178152 42.624785 43.071913 43.519564 43.967735
44.416443 44.865671 45.315421 45.765660 46.216374 46.667512 47.119043 47.570894
48.023015 48.475312 48.927715 49.380105 49.832388 50.284423 50.736093 51.187228
51.637689 52.087278 52.535831 52.983127 53.428972 53.873122 54.315359 54.755412
55.193041 55.627953 56.059886 56.488527 56.913595 57.334760 57.751727 58.164154
58.571734 58.974118 59.370994 59.762009 60.146852 60.525172 60.896664 61.260988
61.617847 61.966916 62.307917 62.640542 62.964533 63.279609 63.585535 63.882058
64.168971 64.446050 64.713117 64.969980 65.216490 65.452485 65.677846 65.892439
66.096173 66.288942 66.470677 66.641299 66.800758 66.948997 67.085982 67.211674
67.326054 67.429094 67.520786 67.601112 67.670070 67.727651 67.773854 67.808677
67.832119 67.844182 67.844866 67.834174 67.812106 67.778668 67.733861 67.677692
67.610165 67.531293 67.441081 67.339550 67.226713 67.102599 66.967232 66.820655
66.662903 66.494038 66.314113 66.123210 65.921401 65.708795 65.485486 65.251612
65.007293 64.752696 64.487971 64.213314 63.928904 63.634970 63.331719 63.019409
62.698275 62.368602 62.030650 61.684728 61.331116 60.970143 60.602105 60.227346
59.846172 59.458937 59.065952 58.667573 58.264111 57.855920 57.443305 57.026611
56.606135 56.182208 55.755110 55.325158 54.892612 54.457769 54.020868 53.582182
53.141928 52.700354 52.257652 51.814043 51.369695 50.924802 50.479507 50.033978
49.588332 49.142713 48.697212 48.251948 47.806991 47.362436 46.918331 46.474748
46.031717 45.589290 45.147477 44.706312 44.265789 43.825924 43.386699 42.948113
42.510137 42.072756 41.635930 41.199634 40.763819 40.328448 39.893469 39.458836
39.024491 38.590383 38.156452 37.722641 37.288889
37.666667 38.141829 38.617049 39.092387 39.567898 40.043641 40.519665 40.996027
41.472769 41.949942 42.427581 42.905729 43.384408 43.863654 44.343476 44.823899
45.304915 45.786537 46.268739 46.751520 47.234834 47.718662 48.202937 48.687620
49.172623 49.657883 50.143288 50.628752 51.114136 51.599330 52.084166 52.568508
53.052161 53.534961 54.016683 54.497136 54.976068 55.453258 55.928428 56.401330
56.871658 57.339140 57.803448 58.264287 58.721306 59.174194 59.622582 60.066144
60.504501 60.937317 61.364207 61.784831 62.198805 62.605791 63.005413 63.397341
63.781211 64.156710 64.523493 64.881266 65.229710 65.568558 65.897518 66.216352
66.524801 66.822659 67.109701 67.385753 67.650627 67.904179 68.146255 68.376744
68.595521 68.802503 68.997597 69.180743 69.351871 69.510943 69.657911 69.792752
69.915434 70.025947 70.124272 70.210405 70.284337 70.346069 70.395597 70.432924
70.458048 70.470974 70.471702 70.460234 70.436573 70.400719 70.352677 70.292448
70.220039 70.135454 70.038705 69.929800 69.808760 69.675601 69.530358 69.373057
69.203750 69.022478 68.829316 68.624324 68.407602 68.179235 67.939351 67.688063
67.425532 67.151900 66.867362 66.572093 66.266322 65.950257 65.624160 65.288271
64.942885 64.588270 64.224751 63.852620 63.472227 63.083887 62.687965 62.284792
61.874749 61.458173 61.035451 60.606924 60.172980 59.733955 59.290230 58.842133
58.390033 57.934243 57.475117 57.012947 56.548066 56.080746 55.611294 55.139958
54.667018 54.192694 53.717241 53.240850 52.763746 52.286093 51.808087 51.329865
50.851594 50.373385 49.895376 49.417653 48.940328 48.463464 47.987147 47.511417
47.036338 46.561931 46.088237 45.615258 45.143017 44.671500 44.200713 43.730627
43.261232 42.792489 42.324373 41.856834 41.389838 40.923328 40.457257 39.991563
39.526193 39.061081 38.596167 38.131383 37.666667
38.044444 38.551286 39.058192 39.565228 40.072458 40.579940 41.087740 41.595909
42.104507 42.613577 43.123172 43.633327 44.144085 44.655465 45.167504 45.680205
46.193589 46.707644 47.222376 47.737752 48.253761 48.770348 49.287483 49.805087
50.323107 50.841439 51.360005 51.878673 52.397340 52.915845 53.434057 53.951783
54.468863 54.985075 55.500227 56.014066 56.526370 57.036853 57.545265 58.051291
58.554651 59.055002 59.552037 60.045390 60.534730 61.019669 61.499859 61.974896
62.444418 62.908010 63.365303 63.815879 64.259369 64.695357 65.123480 65.543335
65.954571 66.356802 66.749699 67.132901 67.506102 67.868972 68.221237 68.562601
68.892825 69.211648 69.518868 69.814265 70.097670 70.368902 70.627829 70.874305
71.108231 71.329494 71.538024 71.733738 71.916590 72.086523 72.243509 72.387513