# vtk DataFile Version 3.0
Steady-state temperature (Jacobi)
ASCII
DATASET STRUCTURED_POINTS
DIMENSIONS 181 181 1
ORIGIN 0.0 0.0 0.0
SPACING 0.05 0.05 1.0
POINT_DATA 32761
SCALARS Temperature float 1
LOOKUP_TABLE default
32.000000 32.000000 32.000000 32.000000 32.000000 32.000000 32.000000 32.000000
32.000000 32.000000 32.000000 32.000000 32.000000 32.000000 32.000000 32.000000
32.000000 32.000000 32.000000 32.000000 32.000000 32.000000 32.000000 32.000000
32.000000 32.000000 32.000000 32.000000 32.000000 32.000000 32.000000 32.000000
32.000000 32.000000 32.000000 32.000000 32.000000 32.000000 32.000000 32.000000
32.000000 32.000000 32.000000 32.000000 32.000000 32.000000 32.000000 32.000000
32.000000 32.000000 32.000000 32.000000 32.000000 32.000000 32.000000 32.000000
32.000000 32.000000 32.000000 32.000000 32.000000 32.000000 32.000000 32.000000
32.000000 32.000000 32.000000 32.000000 32.000000 32.000000 32.000000 32.000000
32.000000 32.000000 32.000000 32.000000 32.000000 32.000000 32.000000 32.000000
32.000000 32.000000 32.000000 32.000000 32.000000 32.000000 32.000000 32.000000
32.000000 32.000000 32.000000 32.000000 32.000000 32.000000 32.000000 32.000000
32.000000 32.000000 32.000000 32.000000 32.000000 32.000000 32.000000 32.000000
32.000000 32.000000 32.000000 32.000000 32.000000 32.000000 32.000000 32.000000
32.000000 32.000000 32.000000 32.000000 32.000000 32.000000 32.000000 32.000000
32.000000 32.000000 32.000000 32.000000 32.000000 32.000000 32.000000 32.000000
32.000000 32.000000 32.000000 32.000000 32.000000 32.000000 32.000000 32.000000
32.000000 32.000000 32.000000 32.000000 32.000000 32.000000 32.000000 32.000000
32.000000 32.000000 32.000000 32.000000 32.000000 32.000000 32.000000 32.000000
32.000000 32.000000 32.000000 32.000000 32.000000 32.000000 32.000000 32.000000
32.000000 32.000000 32.000000 32.000000 32.000000 32.000000 32.000000 32.000000
32.000000 32.000000 32.000000 32.000000 32.000000 32.000000 32.000000 32.000000
32.000000 32.000000 32.000000 32.000000 32.000000
32.377778 32.395382 32.413004 32.430667 32.448384 32.466180 32.484068 32.502072
32.520202 32.538485 32.556925 32.575552 32.594368 32.613400 32.632647 32.652138
32.671868 32.691865 32.712119 32.732660 32.753472 32.774585 32.795978 32.817680
32.839667 32.861966 32.884548 32.907439 32.930605 32.954071 32.977799 33.001810
33.026063 33.050578 33.075310 33.100274 33.125423 33.150771 33.176265 33.201918
33.227674 33.253543 33.279467 33.305454 33.331444 33.357441 33.383385 33.409279
33.435060 33.460730 33.486226 33.511550 33.536636 33.561487 33.586039 33.610292
33.634184 33.657716 33.680826 33.703517 33.725728 33.747462 33.768663 33.789332
33.809417 33.828921 33.847794 33.866041 33.883615 33.900521 33.916717 33.932208
33.946958 33.960970 33.974213 33.986691 33.998376 34.009272 34.019357 34.028634
34.037083 34.044709 34.051496 34.057446 34.062548 34.066805 34.070207 34.072757
34.074450 34.075286 34.075264 34.074384 34.072648 34.070054 34.066607 34.062307
34.057161 34.051167 34.044337 34.036667 34.028175 34.018854 34.008727 33.997787
33.986059 33.973539 33.960254 33.946201 33.931411 33.915879 33.899644 33.882700
33.865089 33.846807 33.827898 33.808362 33.788245 33.767547 33.746319 33.724561
33.702328 33.679619 33.656493 33.632949 33.609048 33.584791 33.560239 33.535393
33.510317 33.485009 33.459535 33.433893 33.408147 33.382295 33.356401 33.330461
33.304539 33.278627 33.252788 33.227014 33.201363 33.175827 33.150461 33.125253
33.100258 33.075459 33.050907 33.026586 33.002541 32.978753 32.955265 32.932055
32.909161 32.886560 32.864286 32.842312 32.820670 32.799331 32.778321 32.757611
32.737223 32.717126 32.697337 32.677826 32.658605 32.639643 32.620948 32.602490
32.584272 32.566264 32.548465 32.530846 32.513403 32.496107 32.478951 32.461907
32.444965 32.428098 32.411292 32.394525 32.377778
32.755556 32.790778 32.826040 32.861377 32.896832 32.932434 32.968232 33.004248
33.040533 33.077104 33.114014 33.151272 33.188934 33.227001 33.265531 33.304515
33.344012 33.384007 33.424557 33.465638 33.507307 33.549531 33.592365 33.635768
33.679794 33.724390 33.769609 33.815389 33.861779 33.908710 33.956225 34.004247
34.052817 34.101848 34.151376 34.201306 34.251671 34.302368 34.353426 34.404735
34.456318 34.508060 34.559980 34.611958 34.664009 34.716009 34.767969 34.819762
34.871396 34.922742 34.973806 35.024457 35.074701 35.124408 35.173579 35.222090
35.269940 35.317006 35.363290 35.408673 35.453156 35.496625 35.539082 35.580420
35.620643 35.659650 35.697444 35.733935 35.769127 35.802935 35.835367 35.866346
35.895879 35.923900 35.950415 35.975367 35.998763 36.020552 36.040743 36.059292
36.076209 36.091457 36.105044 36.116941 36.127156 36.135666 36.142478 36.147576
36.150965 36.152637 36.152593 36.150834 36.147357 36.142171 36.135272 36.126674
36.116372 36.104387 36.090713 36.075378 36.058374 36.039738 36.019461 35.997586
35.974105 35.949069 35.922469 35.894367 35.864752 35.833693 35.801183 35.767298
35.732032 35.695470 35.657606 35.618534 35.578249 35.536852 35.494341 35.450823
35.406297 35.360877 35.314561 35.267470 35.219603 35.171085 35.121914 35.072217
35.021994 34.971374 34.920354 34.869064 34.817500 34.765792 34.713931 34.662047
34.610129 34.558302 34.506551 34.455000 34.403628 34.352553 34.301751 34.251335
34.201275 34.151677 34.102508 34.053866 34.005712 33.958138 33.911101 33.864683
33.818837 33.773637 33.729033 33.685089 33.641752 33.599077 33.557008 33.515591
33.474768 33.434576 33.394956 33.355935 33.317454 33.279531 33.242105 33.205188
33.168719 33.132700 33.097073 33.061831 33.026919 32.992322 32.957985 32.923890
32.889984 32.856240 32.822611 32.789064 32.755556
33.133333 33.186206 33.239134 33.292181 33.345395 33.398846 33.452571 33.506647
33.561101 33.616014 33.671403 33.727353 33.783868 33.841037 33.898852 33.957402
34.016669 34.076741 34.137587 34.199294 34.261818 34.325246 34.389520 34.454723
34.520785 34.587784 34.655637 34.724418 34.794030 34.864542 34.935845 35.008001
35.080887 35.154561 35.228887 35.303916 35.379500 35.455685 35.532310 35.609415
35.686831 35.764589 35.842513 35.920627 35.998749 36.076897 36.154882 36.232720
36.310217 36.387383 36.464024 36.540146 36.615556 36.690257 36.764058 36.836959
36.908775 36.979505 37.048969 37.117166 37.183924 37.249243 37.312959 37.375074
37.435434 37.494043 37.550756 37.605582 37.658386 37.709179 37.757840 37.804380
37.848689 37.890782 37.930562 37.968043 38.003141 38.035870 38.066158 38.094020
38.119395 38.142297 38.162677 38.180546 38.195867 38.208649 38.218865 38.226523
38.231606 38.234117 38.234051 38.231409 38.226195 38.218406 38.208058 38.195145
38.179693 38.161693 38.141182 38.118150 38.092644 38.064653 38.034235 38.001378
37.966152 37.928545 37.888640 37.846423 37.801992 37.755332 37.706554 37.655647
37.602731 37.547798 37.490981 37.432274 37.371821 37.309618 37.245822 37.180429
37.113607 37.045352 36.975842 36.905075 36.833235 36.760320 36.686521 36.611835
36.536456 36.460381 36.383806 36.306724 36.229332 36.151621 36.073785 35.995810
35.917889 35.840000 35.762332 35.684859 35.607761 35.531006 35.454766 35.379002
35.303877 35.229346 35.155559 35.082466 35.010207 34.938721 34.868139 34.798393
34.729600 34.661688 34.594759 34.528737 34.463710 34.399598 34.336474 34.274256
34.213003 34.152629 34.093180 34.034569 33.976828 33.919869 33.863712 33.808267
33.753544 33.699452 33.645990 33.593071 33.540679 33.488731 33.437201 33.386011
33.335124 33.284465 33.233991 33.183631 33.133333
33.511111 33.581676 33.652321 33.723115 33.794147 33.865475 33.937195 34.009353
34.082053 34.155325 34.229279 34.303932 34.379397 34.455674 34.532880 34.611000
34.690151 34.770300 34.851566 34.933898 35.017412 35.102041 35.187898 35.274897
35.363148 35.452546 35.543195 35.634974 35.727979 35.822072 35.917341 36.013630
36.111021 36.209340 36.308660 36.408791 36.509797 36.611474 36.713875 36.816784
36.920246 37.024030 37.128174 37.232436 37.336847 37.441156 37.545387 37.649283
37.752861 37.855862 37.958296 38.059904 38.160691 38.260400 38.359035 38.456340
38.552319 38.646723 38.739554 38.830574 38.919785 39.006959 39.092101 39.174994
39.255645 39.333854 39.409629 39.482784 39.553331 39.621100 39.686106 39.748195
39.807385 39.863537 39.916672 39.966668 40.013545 40.057200 40.097651 40.134811
40.168699 40.199242 40.226457 40.250287 40.270746 40.287792 40.301434 40.311646
40.318433 40.321782 40.321694 40.318171 40.311209 40.300823 40.287005 40.269785
40.249152 40.225147 40.197758 40.167041 40.132980 40.095647 40.055024 40.011198
39.964151 39.913987 39.860686 39.804368 39.745017 39.682768 39.617606 39.549684
39.478989 39.405691 39.329779 39.251439 39.170663 39.087654 39.002405 38.915133
38.825835 38.734740 38.641846 38.547394 38.451382 38.354060 38.255427 38.155738
38.054992 37.953448 37.851101 37.748214 37.644775 37.541048 37.437016 37.332939
37.228794 37.124835 37.021031 36.917628 36.814589 36.712148 36.610259 36.509145
36.408750 36.309285 36.210683 36.113141 36.016585 35.921192 35.826881 35.733813
35.641899 35.551281 35.461863 35.373770 35.286898 35.201356 35.117033 35.034019
34.952200 34.871649 34.792246 34.714046 34.636930 34.560935 34.485939 34.411964
34.338889 34.266719 34.195334 34.124724 34.054774 33.985458 33.916666 33.848357
33.780428 33.712824 33.645451 33.578243 33.511111
33.888889 33.977209 34.065623 34.154236 34.243129 34.332418 34.422168 34.512504
34.603475 34.695214 34.787752 34.881228 34.975654 35.071173 35.167777 35.265612
35.364649 35.465035 35.566720 35.669848 35.774349 35.880364 35.987798 36.096792
36.207226 36.319233 36.432674 36.547673 36.664067 36.781974 36.901208 37.021877
37.143772 37.266992 37.391308 37.516807 37.643241 37.770684 37.898870 38.027864
38.157384 38.287481 38.417859 38.548560 38.679277 38.810040 38.940534 39.070782
39.200461 39.329586 39.457833 39.585211 39.711395 39.836390 39.959876 40.081854
40.202011 40.320347 40.436558 40.550646 40.662318 40.771578 40.878148 40.982034
41.082977 41.180984 41.275814 41.367480 41.455760 41.540669 41.622007 41.699792
41.773844 41.844185 41.910656 41.973279 42.031917 42.086592 42.137187 42.183725
42.226107 42.264355 42.298390 42.328230 42.353814 42.375158 42.392218 42.405004
42.413491 42.417684 42.417575 42.413164 42.404459 42.391455 42.374178 42.352616
42.326814 42.296757 42.262505 42.224040 42.181442 42.134688 42.083879 42.028990
41.970141 41.907307 41.840629 41.770082 41.695827 41.617843 41.536310 41.451211
41.362747 41.270902 41.175900 41.077729 40.976632 40.872601 40.765897 40.656515
40.544734 40.430552 40.314264 40.195867 40.075670 39.953671 39.830187 39.705217
39.579085 39.451787 39.323650 39.194665 39.065162 38.935125 38.804881 38.674407
38.544024 38.413701 38.283749 38.154128 38.025139 37.896728 37.769184 37.642443
37.516776 37.392109 37.268693 37.146443 37.025593 36.906045 36.788012 36.671385
36.556357 36.442808 36.330910 36.220534 36.111827 36.004654 35.899140 35.795144
35.692767 35.591863 35.492512 35.394563 35.298074 35.202895 35.109059 35.016418
34.924985 34.834612 34.745293 34.656882 34.569355 34.482572 34.396490 34.310976
34.225969 34.141346 34.057031 33.972908 33.888889
34.266667 34.372813 34.479079 34.585571 34.692422 34.799719 34.907610 35.016161
35.125530 35.235763 35.347027 35.459345 35.572890 35.687662 35.803837 35.921394
36.040507 36.161130 36.283440 36.407362 36.533070 36.660466 36.789717 36.920697
37.053569 37.188179 37.324681 37.462894 37.602963 37.744680 37.888178 38.033223
38.179938 38.328060 38.477699 38.628570 38.780769 38.933987 39.088307 39.243399
39.399331 39.555757 39.712732 39.869891 40.027279 40.184519 40.341643 40.498266
40.654410 40.809685 40.964105 41.117278 41.269211 41.419516 41.568196 41.714868
41.859532 42.001818 42.141723 42.278891 42.413323 42.544675 42.672953 42.797835
42.919326 43.037128 43.151251 43.261418 43.367645 43.469680 43.567542 43.661005
43.750091 43.834599 43.914555 43.989781 44.060307 44.125979 44.186825 44.242717
44.293682 44.339615 44.380539 44.416371 44.447132 44.472760 44.493271 44.508624
44.518828 44.523863 44.523733 44.518437 44.507972 44.492359 44.471587 44.445698
44.414677 44.378584 44.337401 44.291209 44.239985 44.183835 44.122732 44.056805
43.986025 43.910547 43.830342 43.745589 43.656260 43.562559 43.464463 43.362201
43.255752 43.145371 43.031043 42.913046 42.791368 42.666314 42.537875 42.406376
42.271815 42.134535 41.994536 41.852179 41.707465 41.560769 41.412091 41.261818
41.109947 40.956870 40.802582 40.647477 40.491543 40.335174 40.178350 40.021459
39.864471 39.707766 39.551303 39.395450 39.240152 39.085763 38.932214 38.779841
38.628561 38.478690 38.330131 38.183176 38.037715 37.894018 37.751959 37.611783
37.473352 37.336885 37.202232 37.069585 36.938785 36.809994 36.683048 36.558081
36.434920 36.313674 36.194164 36.076472 35.960417 35.846054 35.733203 35.621891
35.511939 35.403352 35.295952 35.189722 35.084488 34.980210 34.876723 34.773965
34.671781 34.570089 34.468744 34.367647 34.266667
34.644444 34.768509 34.892705 35.017182 35.142054 35.267485 35.393566 35.520474
35.648278 35.777166 35.907183 36.038522 36.171203 36.305426 36.441183 36.578676
36.717869 36.858966 37.001898 37.146869 37.293781 37.442832 37.593891 37.747153
37.902454 38.059980 38.219535 38.381294 38.545031 38.710908 38.878667 39.048457
39.219989 39.393397 39.568363 39.745005 39.922977 40.102382 40.282847 40.464459
40.646823 40.830009 41.013602 41.197656 41.381741 41.565896 41.749679 41.933117
42.115757 42.297617 42.478241 42.657637 42.835350 43.011382 43.185284 43.357053
43.526250 43.692871 43.856491 44.017106 44.174309 44.328101 44.478093 44.624291
44.766331 44.904223 45.037631 45.166569 45.290730 45.410134 45.524501 45.633857
45.737953 45.836818 45.930232 46.018227 46.100612 46.177420 46.248489 46.313852
46.373373 46.427082 46.474872 46.516768 46.552687 46.582650 46.606599 46.624548
46.636463 46.642350 46.642198 46.636008 46.623790 46.605538 46.581286 46.551020
46.514798 46.472599 46.424508 46.370497 46.310675 46.245012 46.173645 46.096539
46.013859 45.925571 45.831868 45.732717 45.628339 45.518705 45.404067 45.284398
45.159980 45.030792 44.897146 44.759025 44.616769 44.470369 44.320191 44.166229
44.008875 43.848129 43.684402 43.517696 43.348443 43.176645 43.002747 42.826751
42.649112 42.469828 42.289359 42.107697 41.925303 41.742162 41.558730 41.374981
41.191365 41.007841 40.824847 40.642329 40.460708 40.279915 40.100352 39.921932
39.745035 39.569559 39.395856 39.223810 39.053745 38.885526 38.719452 38.555371
38.393551 38.233827 38.076436 37.921199 37.768321 37.617614 37.469251 37.323033
37.179101 37.037252 36.897593 36.759918 36.624302 36.490535 36.358666 36.228482
36.100002 35.973019 35.847521 35.723306 35.600338 35.478419 35.357488 35.237358
35.117945 34.999072 34.880633 34.762466 34.644444
35.022222 35.164301 35.306543 35.449087 35.592114 35.735742 35.880168 36.025483
36.171898 36.319478 36.468442 36.618828 36.770863 36.924553 37.080131 37.237569
37.397103 37.558673 37.722514 37.888530 38.056952 38.227650 38.400848 38.576382
38.754465 38.934896 39.117880 39.303177 39.490979 39.681010 39.873447 40.067979
40.264766 40.463462 40.664209 40.866630 41.070847 41.276452 41.483548 41.691700
41.900992 42.110962 42.321679 42.532658 42.743950 42.955055 43.166009 43.376298
43.585944 43.794427 44.001759 44.207416 44.411402 44.613198 44.812801 45.009700
45.203890 45.394874 45.582647 45.766731 45.947121 46.123364 46.295458 46.462977
46.625925 46.783903 46.936925 47.084623 47.227015 47.363768 47.494907 47.620131
47.739472 47.852663 47.959740 48.060470 48.154890 48.242800 48.324240 48.399040
48.467237 48.528694 48.583444 48.631378 48.672525 48.706804 48.734238 48.754771
48.768419 48.775154 48.774982 48.767901 48.753909 48.733030 48.705252 48.670628
48.629136 48.580857 48.525763 48.463963 48.395423 48.320282 48.238502 48.150254
48.055497 47.954434 47.847027 47.733510 47.613847 47.488307 47.356859 47.219805
47.077119 46.929138 46.775843 46.617605 46.454411 46.286662 46.114355 45.937919
45.757356 45.573124 45.385228 45.194149 44.999894 44.802964 44.603365 44.401612
44.197710 43.992182 43.785026 43.576771 43.367406 43.157458 42.946905 42.736267
42.525509 42.315138 42.105105 41.895901 41.687458 41.480246 41.274179 41.069704
40.866715 40.665631 40.466327 40.269191 40.074080 39.881349 39.690837 39.502865
39.317253 39.134290 38.953778 38.775970 38.600656 38.428051 38.257934 38.090482
37.925466 37.763028 37.602931 37.445280 37.289836 37.136668 36.985536 36.836475
36.689245 36.543850 36.400054 36.257829 36.116946 35.977348 35.838815 35.701261
35.564480 35.428359 35.292706 35.157386 35.022222
35.400000 35.560214 35.720601 35.881352 36.042616 36.204605 36.367440 36.531349
36.696423 36.862904 37.030852 37.200519 37.371930 37.545346 37.720756 37.898424
38.078303 38.260658 38.445403 38.632800 38.822724 39.015433 39.210759 39.408953
39.609807 39.813558 40.019959 40.229233 40.441090 40.655739 40.872849 41.092610
41.314652 41.539144 41.765680 41.994407 42.224882 42.457233 42.690981 42.926232
43.162479 43.399806 43.637680 43.876164 44.114703 44.353342 44.591509 44.829233
45.065931 45.301617 45.535703 45.768191 45.998496 46.226611 46.451956 46.674523
46.893742 47.109605 47.321560 47.529600 47.733199 47.932351 48.126559 48.315824
48.499681 48.678139 48.850765 49.017578 49.178184 49.332606 49.480490 49.621867
49.756420 49.884188 50.004890 50.118570 50.224986 50.324181 50.415951 50.500339
50.577175 50.646501 50.708178 50.762244 50.808592 50.847253 50.878152 50.901309
50.916681 50.924278 50.924085 50.916102 50.900343 50.876800 50.845514 50.806467
50.759732 50.705281 50.643219 50.573509 50.496289 50.411518 50.319367 50.219792
50.113000 49.998947 49.877874 49.749741 49.614828 49.473096 49.324866 49.170105
49.009171 48.842039 48.669108 48.490358 48.306226 48.116702 47.922256 47.722886
47.519096 47.310889 47.098796 46.882827 46.663536 46.440934 46.215594 45.987527
45.757319 45.524975 45.291090 45.055660 44.819281 44.581939 44.344225 44.106110
43.868175 43.630375 43.393274 43.156808 42.921519 42.687324 42.454739 42.223659
41.994570 41.767346 41.542439 41.319702 41.099551 40.881816 40.666878 40.454545
40.245160 40.038511 39.834900 39.634100 39.436371 39.241472 39.049622 38.860567
38.674486 38.491116 38.310594 38.132652 37.957387 37.784527 37.614131 37.445927
37.279937 37.115890 36.953774 36.793324 36.634491 36.477022 36.320836 36.165690
36.011473 35.857959 35.705007 35.552410 35.400000
35.777778 35.956249 36.134926 36.313985 36.493655 36.674085 36.855523 37.038087
37.222041 37.407469 37.594648 37.783626 37.974690 38.167849 38.363396 38.561301
38.761858 38.964995 39.171007 39.379777 39.591595 39.806301 40.024177 40.245016
40.469090 40.696148 40.926444 41.159682 41.396102 41.635360 41.877676 42.122663
42.370518 42.620811 42.873717 43.128762 43.386098 43.645213 43.906234 44.168613
44.432451 44.697171 44.962850 45.228882 45.495322 45.761544 46.027583 46.292795
46.557200 46.820143 47.081630 47.341005 47.598261 47.852747 48.104451 48.352732
48.597573 48.838353 49.075056 49.307082 49.534421 49.756502 49.973320 50.184341
50.389566 50.588497 50.781149 50.967062 51.146259 51.318326 51.483293 51.640789
51.790852 51.933155 52.067741 52.194326 52.312958 52.423392 52.525678 52.619610
52.705236 52.782389 52.851112 52.911274 52.962912 53.005928 53.040351 53.066116
53.083240 53.091693 53.091479 53.082599 53.065048 53.038856 53.004006 52.960563
52.908498 52.847910 52.778760 52.701182 52.615131 52.520776 52.418069 52.307216
52.188167 52.061169 51.926173 51.783466 51.633004 51.475117 51.309765 51.137324
50.957762 50.771498 50.578508 50.379254 50.173723 49.962417 49.745334 49.523014
49.295461 49.063251 48.826396 48.585499 48.340578 48.092260 47.840562 47.586132
47.328982 47.069770 46.808505 46.545849 46.281798 46.017013 45.751477 45.485841
45.220071 44.954803 44.689981 44.426222 44.163447 43.902246 43.642517 43.384818
43.129022 42.875652 42.624557 42.376221 42.130467 41.887738 41.647836 41.411159
41.177487 40.947174 40.719978 40.496210 40.275610 40.058442 39.844432 39.633797
39.426252 39.221969 39.020654 38.822434 38.627008 38.434462 38.244492 38.057141
37.872108 37.689394 37.508702 37.329996 37.152987 36.977601 36.803561 36.630759
36.458932 36.287941 36.117540 35.947560 35.777778
36.155556 36.352430 36.549518 36.747057 36.945231 37.144302 37.344421 37.545868
37.748759 37.953391 38.159841 38.368419 38.579160 38.792382 39.008077 39.226570
39.447806 39.672109 39.899380 40.129939 40.363638 40.600791 40.841199 41.085165
41.332442 41.583318 41.837494 42.095242 42.356212 42.620654 42.888170 43.158987
43.432656 43.709380 43.988665 44.270684 44.554900 44.841459 45.129780 45.419985
45.711453 46.004278 46.297808 46.592112 46.886508 47.181042 47.475012 47.768442
48.060617 48.351541 48.640494 48.927467 49.211739 49.493291 49.771412 50.046078
50.316593 50.582933 50.844424 51.101046 51.352154 51.597736 51.837182 52.070487
52.297083 52.516976 52.729641 52.935096 53.132862 53.322969 53.504984 53.678949
53.844479 54.001623 54.150045 54.289798 54.420594 54.542488 54.655237 54.758896
54.853263 54.938390 55.014116 55.080486 55.137378 55.184828 55.222750 55.251169
55.270035 55.279359 55.279125 55.269334 55.250002 55.221115 55.182726 55.134809
55.077450 55.010613 54.934421 54.848828 54.753997 54.649875 54.536666 54.414312
54.283060 54.142854 53.993984 53.836397 53.670431 53.496037 53.313601 53.123084
52.924919 52.719078 52.506043 52.285796 52.058866 51.825247 51.585513 51.339668
51.088326 50.831502 50.569845 50.303377 50.032776 49.758069 49.479957 49.198465
48.914313 48.627519 48.338813 48.048203 47.756420 47.463460 47.170046 46.876156
46.582501 46.289036 45.996453 45.704684 45.414391 45.125482 44.838587 44.553585
44.271070 43.990893 43.713607 43.439034 43.167684 42.899352 42.634501 42.372899
42.114961 41.860433 41.609678 41.362422 41.118979 40.879054 40.642911 40.410241
40.181257 39.955639 39.733549 39.514660 39.299086 39.086495 38.876954 38.670129
38.466043 38.264366 38.065075 37.867848 37.672621 37.479083 37.287130 37.096466
36.906949 36.718302 36.530351 36.342837 36.155556
36.533333 36.748756 36.964426 37.180564 37.397443 37.615249 37.834280 38.054682
38.276774 38.500662 38.726680 38.954890 39.185638 39.418941 39.655150 39.894235
40.136551 40.382015 40.630981 40.883317 41.139368 41.398949 41.662397 41.929471
42.200494 42.475170 42.753804 43.036045 43.322177 43.611793 43.905153 44.201797
44.501957 44.805119 45.111488 45.420499 45.732325 46.046356 46.362734 46.680803
47.000674 47.321655 47.643826 47.966460 48.289611 48.612524 48.935228 49.256948
49.577693 49.896675 50.213884 50.528531 50.840592 51.149283 51.454573 51.755690
52.052601 52.344556 52.631524 52.912784 53.188311 53.457422 53.720099 53.975702
54.224226 54.465077 54.698264 54.923241 55.140033 55.348147 55.547618 55.738007
55.919362 56.091294 56.253859 56.406723 56.549945 56.683240 56.806671 56.919998
57.023283 57.116331 57.199198 57.271733 57.333981 57.385832 57.427320 57.458373
57.479012 57.489201 57.488948 57.478252 57.457106 57.425547 57.383552 57.331196
57.268441 57.195401 57.112028 57.018475 56.914687 56.800857 56.676926 56.543133
56.399416 56.246062 56.083009 55.910597 55.728768 55.537914 55.337985 55.129426
54.912201 54.686805 54.453215 54.211981 53.963093 53.707151 53.444159 53.174764
52.898982 52.617504 52.330355 52.038262 51.741257 51.440098 51.134817 50.826195
50.514264 50.199815 49.882874 49.564239 49.243921 48.922716 48.600618 48.278412
47.956069 47.634355 47.313216 46.993393 46.674803 46.358153 46.043331 45.731005
45.421033 45.114040 44.809851 44.509045 44.211416 43.917492 43.627039 43.340533
43.057710 42.778993 42.504094 42.233381 41.966543 41.703893 41.445101 41.190426
40.939524 40.692596 40.449289 40.209751 39.973620 39.740994 39.511508 39.285208
39.061730 38.841073 38.622878 38.407096 38.193381 37.981637 37.771532 37.562930
37.355516 37.149115 36.943434 36.738263 36.533333
36.911111 37.145250 37.379644 37.614580 37.850277 38.087050 38.325080 38.564704
38.806061 39.049507 39.295136 39.543318 39.794099 40.047858 40.304591 40.564682
40.828074 41.095151 41.365800 41.640402 41.918788 42.201327 42.487793 42.778543
43.073289 43.372372 43.675444 43.982823 44.294102 44.609574 44.928771 45.251959
45.578611 45.908962 46.242429 46.579212 46.918677 47.260988 47.605461 47.952227
48.300554 48.650542 49.001417 49.353247 49.705226 50.057391 50.408911 50.759796
51.109198 51.457105 51.802659 52.145834 52.485772 52.822435 53.154974 53.483347
53.806726 54.125066 54.437569 54.744196 55.044185 55.337506 55.623441 55.901972
56.172432 56.434818 56.688515 56.933538 57.169328 57.395916 57.612799 57.820025
58.017148 58.204226 58.380872 58.547152 58.702733 58.847686 58.981731 59.104938
59.217078 59.318216 59.408169 59.486995 59.554555 59.610895 59.655919 59.689658
59.712055 59.723127 59.722855 59.711238 59.688296 59.654012 59.608443 59.551558
59.483453 59.404083 59.313586 59.211905 59.099224 58.975475 58.840892 58.695402
58.539288 58.372479 58.195309 58.007713 57.810080 57.602352 57.384976 57.157908
56.921652 56.676176 56.422046 56.159245 55.888395 55.609496 55.323224 55.029594
54.729333 54.422470 54.109773 53.791283 53.467806 53.139387 52.806861 52.470272
52.130478 51.787517 51.442256 51.094724 50.745789 50.395461 50.044603 49.693202
49.342103 48.991268 48.641517 48.292782 47.945849 47.600620 47.257839 46.917375
46.579929 46.245331 45.914235 45.586438 45.262537 44.942297 44.626260 44.314159
44.006477 43.702919 43.403907 43.109121 42.818924 42.532971 42.251568 41.974349
41.701561 41.432824 41.168326 40.907678 40.651010 40.397926 40.148502 39.902342
39.659465 39.419481 39.182357 38.947710 38.715461 38.485237 38.256913 38.030133
37.804730 37.580368 37.356840 37.133836 36.911111
37.288889 37.541908 37.795221 38.049088 38.303834 38.559679 38.816975 39.075899
39.336825 39.599884 39.865466 40.133653 40.404849 40.679080 40.956759 41.237857
41.522789 41.811468 42.104307 42.401157 42.702423 43.007897 43.317970 43.632370
43.951471 44.274936 44.603118 44.935616 45.272756 45.614071 45.959858 46.309588
46.663524 47.021073 47.382464 47.747043 48.115003 48.485633 48.859087 49.234603
49.612297 49.991358 50.371867 50.752973 51.134722 51.516230 51.897512 52.277660
52.656663 53.033598 53.408432 53.780237 54.148967 54.513698 54.874376 55.230094
55.580794 55.925596 56.264446 56.596500 56.921713 57.239286 57.549186 57.850667
58.143714 58.427635 58.702434 58.967482 59.222800 59.467822 59.702588 59.926595
60.139897 60.342055 60.533135 60.712757 60.880996 61.037531 61.182438 61.315451
61.436646 61.545805 61.642999 61.728060 61.801046 61.861833 61.910467 61.946866
61.971059 61.983005 61.982714 61.970185 61.945410 61.908429 61.859213 61.797843
61.724275 61.638632 61.540856 61.431116 61.309342 61.175751 61.030267 60.873159
60.704349 60.524161 60.332520 60.129808 59.915959 59.691415 59.456121 59.210585
58.954766 58.689235 58.413971 58.129607 57.836140 57.534267 57.224003 56.906102
56.580595 56.248290 55.909232 55.564272 55.213466 54.857701 54.497037 54.132389
53.763813 53.392242 53.017723 52.641197 52.262695 51.883152 51.502580 51.121901
50.741098 50.361070 49.981771 49.604065 49.227873 48.854019 48.482387 48.113755
47.747967 47.385752 47.026915 46.672126 46.321155 45.974612 45.632230 45.294559
44.961296 44.632927 44.309122 43.990300 43.676103 43.366888 43.062273 42.762550
42.467319 42.176808 41.890605 41.608874 41.331194 41.057670 40.787876 40.521857
40.259190 39.999864 39.743460 39.489914 39.238818 38.990057 38.743238 38.498199
38.254567 38.012135 37.770555 37.529579 37.288889
37.666667 37.938755 38.211144 38.484167 38.758086 39.033265 39.309922 39.588448
39.869011 40.152024 40.437605 40.726181 41.017815 41.312945 41.611577 41.914153
42.220617 42.531414 42.846422 43.166080 43.490202 43.819216 44.152867 44.491568
44.834995 45.183538 45.536806 45.895163 46.258145 46.626087 46.998458 47.375555
47.756779 48.142391 48.531726 48.925004 49.321495 49.721380 50.123868 50.529099
50.936228 51.345353 51.755580 52.166969 52.578586 52.990454 53.401607 53.812037
54.220758 54.627732 55.031964 55.433397 55.831035 56.224809 56.613734 56.997736
57.375853 57.748014 58.113290 58.471619 58.822116 59.164732 59.498636 59.823796
60.139443 60.445564 60.741455 61.027126 61.301939 61.565928 61.818524 62.059779
62.289192 62.506833 62.712267 62.905575 63.086388 63.254791 63.410476 63.553528
63.683697 63.801064 63.905429 63.996864 64.075219 64.140551 64.192756 64.231873
64.257841 64.270681 64.270371 64.256913 64.230326 64.190590 64.137767 64.071815
63.992842 63.900788 63.795805 63.677820 63.547035 63.403367 63.247070 63.078056
62.896637 62.702726 62.496695 62.278464 62.048469 61.806641 61.553485 61.288947
61.013601 60.727414 60.431029 60.124434 59.808341 59.482762 59.148472 58.805505
58.454697 58.096100 57.730604 57.358274 56.980046 56.595993 56.207087 55.813401
55.415932 55.014749 54.610860 54.204321 53.796142 53.386359 52.975972 52.564991
52.154394 51.744160 51.335235 50.927563 50.522050 50.118599 49.718071 49.320327
48.926174 48.535429 48.148842 47.766188 47.388153 47.014472 46.645765 46.281730
45.922917 45.568989 45.220428 44.876865 44.538712 44.205573 43.877791 43.554947
43.237315 42.924460 42.616587 42.313247 42.014582 41.720136 41.429984 41.143671
40.861210 40.582147 40.306439 40.033641 39.763653 39.496043 39.230658 38.967087
38.705127 38.444391 38.184630 37.925485 37.666667
38.044444 38.335782 38.627462 38.919787 39.213134 39.507761 39.804075 40.102285
40.402825 40.705849 41.011810 41.320809 41.633309 41.949351 42.269409 42.593459
42.921977 43.254873 43.592620 43.935060 44.282655 44.635176 44.993072 45.356040
45.724507 46.098099 46.477215 46.861406 47.251041 47.645596 48.045404 48.449867
48.859280 49.272970 49.691191 50.113199 50.539203 50.968392 51.400931 51.835947
52.273556 52.712832 53.153845 53.595622 54.038191 54.480537 54.922654 55.363495
55.803023 56.240173 56.674881 57.106078 57.533681 57.956628 58.374826 58.787231
59.193752 59.593374 59.986012 60.370696 60.747354 61.115070 61.473790 61.822660
62.161650 62.489975 62.807629 63.113900 63.408808 63.691717 63.962670 64.221105
64.467087 64.700128 64.920308 65.127209 65.320924 65.501099 65.667831 65.820830