# vtk DataFile Version 3.0
Steady-state temperature (Jacobi)
ASCII
DATASET STRUCTURED_POINTS
DIMENSIONS 181 181 1
ORIGIN 0.0 0.0 0.0
SPACING 0.05 0.05 1.0
POINT_DATA 32761
SCALARS Temperature float 1
LOOKUP_TABLE default
32.000000 32.000000 32.000000 32.000000 32.000000 32.000000 32.000000 32.000000
32.000000 32.000000 32.000000 32.000000 32.000000 32.000000 32.000000 32.000000
32.000000 32.000000 32.000000 32.000000 32.000000 32.000000 32.000000 32.000000
32.000000 32.000000 32.000000 32.000000 32.000000 32.000000 32.000000 32.000000
32.000000 32.000000 32.000000 32.000000 32.000000 32.000000 32.000000 32.000000
32.000000 32.000000 32.000000 32.000000 32.000000 32.000000 32.000000 32.000000
32.000000 32.000000 32.000000 32.000000 32.000000 32.000000 32.000000 32.000000
32.000000 32.000000 32.000000 32.000000 32.000000 32.000000 32.000000 32.000000
32.000000 32.000000 32.000000 32.000000 32.000000 32.000000 32.000000 32.000000
32.000000 32.000000 32.000000 32.000000 32.000000 32.000000 32.000000 32.000000
32.000000 32.000000 32.000000 32.000000 32.000000 32.000000 32.000000 32.000000
32.000000 32.000000 32.000000 32.000000 32.000000 32.000000 32.000000 32.000000
32.000000 32.000000 32.000000 32.000000 32.000000 32.000000 32.000000 32.000000
32.000000 32.000000 32.000000 32.000000 32.000000 32.000000 32.000000 32.000000
32.000000 32.000000 32.000000 32.000000 32.000000 32.000000 32.000000 32.000000
32.000000 32.000000 32.000000 32.000000 32.000000 32.000000 32.000000 32.000000
32.000000 32.000000 32.000000 32.000000 32.000000 32.000000 32.000000 32.000000
32.000000 32.000000 32.000000 32.000000 32.000000 32.000000 32.000000 32.000000
32.000000 32.000000 32.000000 32.000000 32.000000 32.000000 32.000000 32.000000
32.000000 32.000000 32.000000 32.000000 32.000000 32.000000 32.000000 32.000000
32.000000 32.000000 32.000000 32.000000 32.000000 32.000000 32.000000 32.000000
32.000000 32.000000 32.000000 32.000000 32.000000 32.000000 32.000000 32.000000
32.000000 32.000000 32.000000 32.000000 32.000000
32.377778 32.391088 32.404420 32.417802 32.431251 32.444797 32.458455 32.472256
32.486212 32.500356 32.514694 32.529263 32.544064 32.559133 32.574468 32.590107
32.606041 32.622308 32.638896 32.655843 32.673130 32.690795 32.708814 32.727226
32.746000 32.765173 32.784709 32.804645 32.824940 32.845628 32.866662 32.888076
32.909817 32.931917 32.954318 32.977050 33.000050 33.023346 33.046872 33.070652
33.094616 33.118786 33.143090 33.167547 33.192081 33.216710 33.241357 33.266036
33.290670 33.315271 33.339760 33.364150 33.388360 33.412403 33.436199 33.459760
33.483006 33.505949 33.528514 33.550710 33.572464 33.593787 33.614609 33.634941
33.654716 33.673946 33.692570 33.710597 33.727972 33.744705 33.760745 33.776103
33.790732 33.804642 33.817793 33.830195 33.841811 33.852652 33.862687 33.871924
33.880338 33.887936 33.894697 33.900629 33.905714 33.909958 33.913349 33.915892
33.917578 33.918411 33.918387 33.917506 33.915771 33.913180 33.909740 33.905446
33.900312 33.894331 33.887519 33.879871 33.871406 33.862118 33.852031 33.841138
33.829468 33.817013 33.803808 33.789844 33.775160 33.759747 33.743652 33.726863
33.709432 33.691349 33.672669 33.653383 33.633552 33.613165 33.592289 33.570912
33.549105 33.526858 33.504243 33.481252 33.457959 33.434355 33.410517 33.386436
33.362190 33.337768 33.313252 33.288627 33.263976 33.239283 33.214629 33.189999
33.165470 33.141025 33.116742 33.092600 33.068674 33.044940 33.021471 32.998241
32.975319 32.952677 32.930378 32.908393 32.886780 32.865509 32.844632 32.824117
32.804012 32.784281 32.764968 32.746035 32.727522 32.709388 32.691668 32.674321
32.657375 32.640788 32.624584 32.608722 32.593217 32.578030 32.563171 32.548601
32.534325 32.520305 32.506541 32.492996 32.479665 32.466513 32.453530 32.440684
32.427961 32.415330 32.402774 32.390263 32.377778
32.755556 32.782193 32.808879 32.835657 32.862580 32.889683 32.917027 32.944639
32.972583 33.000876 33.029590 33.058731 33.088373 33.118513 33.149227 33.180504
33.212421 33.244954 33.278182 33.312073 33.346703 33.382029 33.418129 33.454947
33.492560 33.530900 33.570042 33.609908 33.650571 33.691940 33.734085 33.776907
33.820469 33.864663 33.909549 33.955007 34.001094 34.047682 34.094822 34.142377
34.190396 34.238733 34.287433 34.336343 34.385504 34.434760 34.484146 34.533503
34.582862 34.632062 34.681132 34.729909 34.778420 34.826504 34.874183 34.921301
34.967879 35.013762 35.058971 35.103359 35.146944 35.189585 35.231302 35.271959
35.311578 35.350031 35.387341 35.423388 35.458195 35.491653 35.523784 35.554491
35.583794 35.611606 35.637948 35.662743 35.686011 35.707685 35.727784 35.746251
35.763102 35.778292 35.791834 35.803691 35.813876 35.822360 35.829153 35.834235
35.837613 35.839277 35.839229 35.837468 35.833994 35.828814 35.821924 35.813342
35.803058 35.791102 35.777460 35.762169 35.745216 35.726647 35.706444 35.684666
35.661292 35.636390 35.609940 35.582019 35.552606 35.521790 35.489547 35.455978
35.421059 35.384900 35.347478 35.308913 35.269183 35.228416 35.186590 35.143842
35.100151 35.055661 35.010351 34.964372 34.917702 34.870496 34.822733 34.774573
34.725992 34.677151 34.628026 34.578779 34.529383 34.480001 34.430600 34.381341
34.332191 34.283306 34.234647 34.186367 34.138423 34.090961 34.043933 33.997480
33.951548 33.906270 33.861588 33.817624 33.774318 33.731783 33.689952 33.648929
33.608644 33.569190 33.530493 33.492636 33.455543 33.419283 33.383780 33.349092
33.315141 33.281974 33.249512 33.217791 33.186732 33.156360 33.126597 33.097457
33.068864 33.040823 33.013257 32.986163 32.959467 32.933157 32.907163 32.881462
32.855990 32.830716 32.805581 32.780545 32.755556
33.133333 33.173337 33.213409 33.253628 33.294051 33.334765 33.375815 33.417298
33.459244 33.501756 33.544854 33.588644 33.633131 33.678427 33.724522 33.771530
33.819426 33.868327 33.918190 33.969134 34.021100 34.074206 34.128376 34.183727
34.240166 34.297808 34.356544 34.416483 34.477500 34.539702 34.602945 34.667332
34.732703 34.799155 34.866514 34.934869 35.004032 35.074087 35.144832 35.216342
35.288407 35.361094 35.434182 35.507731 35.581513 35.655582 35.729702 35.803922
35.878003 35.951987 36.025632 36.098979 36.171786 36.244088 36.315645 36.386493
36.456395 36.525384 36.593231 36.659968 36.725375 36.789483 36.852083 36.913206
36.972656 37.030462 37.086443 37.140629 37.192852 37.243144 37.291350 37.337503
37.381463 37.423263 37.462779 37.500042 37.534945 37.567516 37.597663 37.625413
37.650688 37.673513 37.693823 37.711640 37.726915 37.739663 37.749850 37.757487
37.762553 37.765053 37.764981 37.762336 37.757125 37.749343 37.739010 37.726114
37.710692 37.692726 37.672266 37.649290 37.623862 37.595958 37.565656 37.532928
37.497867 37.460443 37.420766 37.378803 37.334679 37.288361 37.239988 37.189530
37.137139 37.082785 37.026636 36.968662 36.909046 36.847758 36.784995 36.720725
36.655160 36.588269 36.520272 36.451138 36.381098 36.310118 36.238437 36.166019
36.093107 36.019665 35.945937 35.871883 35.797748 35.723489 35.649347 35.575274
35.501509 35.427997 35.354971 35.282369 35.210416 35.139045 35.068470 34.998617
34.929688 34.861603 34.794551 34.728444 34.663459 34.599500 34.536730 34.475047
34.414598 34.355276 34.297211 34.240292 34.184633 34.130119 34.076846 34.024697
33.973753 33.923893 33.875182 33.827499 33.780892 33.735240 33.690576 33.646780
33.603869 33.561727 33.520355 33.479641 33.439572 33.400041 33.361020 33.322409
33.284168 33.246203 33.208462 33.170860 33.133333
33.511111 33.564534 33.618056 33.671759 33.725756 33.780114 33.834956 33.890334
33.946380 34.003128 34.060718 34.119167 34.178621 34.239077 34.300685 34.363423
34.427445 34.492705 34.559362 34.627348 34.696822 34.767692 34.840117 34.913984
34.989447 35.066373 35.144910 35.224902 35.306495 35.389509 35.474082 35.560014
35.647436 35.736127 35.826210 35.917445 36.009944 36.103449 36.198065 36.293518
36.389901 36.486927 36.584679 36.682858 36.781540 36.880413 36.979547 37.078623
37.177703 37.276464 37.374961 37.472871 37.570243 37.666755 37.762454 37.857022
37.950503 38.042587 38.133315 38.222389 38.309848 38.395409 38.479109 38.560680
38.640162 38.717302 38.792141 38.864443 38.934253 39.001353 39.065788 39.127361
39.186115 39.241877 39.294687 39.344393 39.391034 39.434478 39.474762 39.511772
39.545544 39.575983 39.603120 39.626880 39.647288 39.664288 39.677898 39.688081
39.694849 39.698183 39.698087 39.694560 39.687599 39.677222 39.663417 39.646222
39.625618 39.601660 39.574323 39.543682 39.509708 39.472492 39.432001 39.388349
39.341497 39.291578 39.238552 39.182574 39.123600 39.061807 38.997151 38.929828
38.859795 38.787269 38.712206 38.634844 38.555140 38.473349 38.389431 38.303656
38.215986 38.126707 38.035779 37.943502 37.849837 37.755093 37.659228 37.562562
37.465049 37.367014 37.268406 37.169553 37.070400 36.971272 36.872108 36.773231
36.674571 36.576443 36.478772 36.381862 36.285627 36.190363 36.095972 36.002736
35.910550 35.819676 35.730002 35.641772 35.554864 35.469505 35.385562 35.303243
35.222407 35.143240 35.065596 34.989638 34.915215 34.842467 34.771238 34.701647
34.633535 34.566999 34.501877 34.438244 34.375940 34.315016 34.255314 34.196864
34.139511 34.083266 34.027975 33.973631 33.920088 33.867317 33.815181 33.763634
33.712546 33.661856 33.611443 33.561231 33.511111
33.888889 33.955808 34.022842 34.090121 34.157742 34.225851 34.294523 34.363918
34.434091 34.505212 34.577313 34.650575 34.725004 34.800788 34.877911 34.956564
35.036704 35.118529 35.201966 35.287215 35.374177 35.463050 35.553708 35.646344
35.740807 35.837286 35.935599 36.035930 36.138071 36.242198 36.348074 36.455867
36.565315 36.676574 36.789357 36.903811 37.019624 37.136931 37.255400 37.375153
37.495839 37.617568 37.739972 37.863150 37.986720 38.110771 38.234908 38.359213
38.483283 38.607190 38.730530 38.853366 38.975295 39.096374 39.216204 39.334837
39.451884 39.567395 39.680988 39.792715 39.902209 40.009520 40.114299 40.216598
40.316087 40.412818 40.506486 40.597143 40.684508 40.768633 40.849262 40.926449
40.999963 41.069857 41.135927 41.198224 41.256570 41.311014 41.361402 41.407780
41.450019 41.488160 41.522098 41.551868 41.577389 41.598688 41.615708 41.628467
41.636930 41.641107 41.640987 41.636569 41.627865 41.614865 41.597603 41.576060
41.550293 41.520276 41.486089 41.447697 41.405204 41.358570 41.307924 41.253220
41.194610 41.132047 41.065709 40.995543 40.921757 40.844295 40.763389 40.678986
40.591343 40.500406 40.406459 40.309449 40.209683 40.107110 40.002058 39.894480
39.784723 39.672739 39.558896 39.443145 39.325868 39.207014 39.086978 38.965707
38.843603 38.720609 38.597132 38.473109 38.348948 38.224579 38.100405 37.976349
37.852807 37.729693 37.607392 37.485806 37.365309 37.245789 37.127605 37.010634
36.895214 36.781210 36.668940 36.558257 36.449456 36.342378 36.237294 36.134034
36.032843 35.933542 35.836350 35.741080 35.647922 35.556683 35.467525 35.380252
35.294997 35.211559 35.130047 35.050257 34.972270 34.895884 34.821151 34.747874
34.676079 34.605572 34.536354 34.468239 34.401203 34.335068 34.269788 34.205195
34.141220 34.077708 34.014571 33.951667 33.888889
34.266667 34.347169 34.427820 34.508746 34.590114 34.672028 34.754672 34.838125
34.922586 35.008107 35.094900 35.182988 35.272594 35.363712 35.456570 35.551134
35.647637 35.746011 35.846494 35.948985 36.053722 36.160571 36.269768 36.381145
36.494934 36.610934 36.729369 36.850007 36.973062 37.098268 37.225832 37.355453
37.487327 37.621124 37.757024 37.894670 38.034228 38.175313 38.318077 38.462110
38.607550 38.753965 38.901480 39.049643 39.198565 39.347780 39.497387 39.646909
39.796434 39.945478 40.094118 40.241871 40.388806 40.534440 40.678838 40.821525
40.962560 41.101481 41.238345 41.372704 41.504616 41.633653 41.759872 41.882869
42.002702 42.118991 42.231799 42.340772 42.445974 42.547083 42.644161 42.736919
42.825419 42.909402 42.988931 43.063776 43.133999 43.199401 43.260039 43.315745
43.366572 43.412380 43.453215 43.488967 43.519673 43.545250 43.565726 43.581047
43.591229 43.596246 43.596102 43.590798 43.580327 43.564717 43.543950 43.518081
43.487082 43.451034 43.409901 43.363792 43.312662 43.256649 43.195701 43.129987
43.059449 42.984285 42.904435 42.820128 42.731300 42.638213 42.540803 42.439361
42.333825 42.224517 42.111375 41.994751 41.874586 41.751261 41.624715 41.495358
41.363130 41.228463 41.091300 40.952091 40.810779 40.667829 40.523184 40.377320
40.230174 40.082233 39.933427 39.784246 39.634612 39.485013 39.335363 39.186142
39.037254 38.889169 38.741778 38.595537 38.450321 38.306572 38.164149 38.023470
37.884383 37.747281 37.611995 37.478894 37.347795 37.219036 37.092422 36.968260
36.846344 36.726950 36.609858 36.495314 36.383090 36.273397 36.166000 36.061077
35.958389 35.858079 35.759907 35.663982 35.570064 35.478230 35.388240 35.300140
35.213697 35.128924 35.045593 34.963690 34.882996 34.803467 34.724897 34.647214
34.570225 34.493834 34.417864 34.342195 34.266667
34.644444 34.738644 34.833006 34.927713 35.022903 35.118780 35.215452 35.313143
35.411932 35.512058 35.613567 35.716711 35.821504 35.928209 36.036802 36.147555
36.260407 36.375636 36.493143 36.613205 36.735688 36.860868 36.988569 37.119066
37.252143 37.388067 37.526586 37.667956 37.811885 37.958620 38.107832 38.259752
38.414015 38.570839 38.729823 38.891168 39.054440 39.219825 39.386858 39.555707
39.725880 39.897528 40.070135 40.243836 40.418096 40.593033 40.768097 40.943394
41.118362 41.293096 41.467027 41.640241 41.812172 41.982893 42.151847 42.319102
42.484110 42.646937 42.807051 42.964516 43.118820 43.270029 43.417657 43.561769
43.701908 43.838143 43.970047 44.097691 44.220684 44.339097 44.452575 44.561191
44.664625 44.762951 44.855884 44.943499 45.025546 45.102096 45.172935 45.238128
45.297498 45.351102 45.398796 45.440628 45.476488 45.506413 45.530326 45.548250
45.560141 45.566011 45.565843 45.559639 45.547413 45.529151 45.504901 45.474636
45.438435 45.396258 45.348217 45.294264 45.234541 45.168991 45.097792 45.020878
44.938464 44.850478 44.757170 44.658466 44.554652 44.445652 44.331788 44.212987
44.089605 43.961571 43.829277 43.692653 43.552127 43.407631 43.259624 43.108041
42.953369 42.795546 42.635084 42.471920 42.306590 42.139028 41.969787 41.798797
41.626622 41.453188 41.279065 41.104171 40.929077 40.753690 40.578577 40.403633
40.229415 40.055804 39.883344 39.711898 39.541991 39.373472 39.206840 39.041928
38.879209 38.718497 38.560236 38.404223 38.250868 38.099954 37.951855 37.806339
37.663745 37.523825 37.386882 37.252656 37.121412 36.992880 36.867286 36.744355
36.624271 36.506754 36.391953 36.279584 36.169758 36.062191 35.956957 35.853776
35.752685 35.653412 35.555956 35.460055 35.365676 35.272568 35.180664 35.089729
34.999666 34.910256 34.821374 34.732821 34.644444
35.022222 35.130239 35.238456 35.347042 35.456222 35.566137 35.677033 35.789018
35.902358 36.017124 36.133600 36.251820 36.372080 36.494376 36.619012 36.745945
36.875485 37.007547 37.142445 37.280050 37.420676 37.564149 37.710782 37.860355
38.013176 38.168979 38.328063 38.490118 38.655431 38.823648 38.995042 39.169217
39.346428 39.526238 39.708885 39.893892 40.081480 40.271133 40.463052 40.656689
40.852226 41.049084 41.247425 41.446647 41.646892 41.847537 42.048708 42.249769
42.450828 42.651241 42.851104 43.049769 43.247323 43.443121 43.637241 43.829050
44.018621 44.205335 44.389262 44.569807 44.747040 44.920389 45.089928 45.255117
45.416030 45.572164 45.723595 45.869858 46.011033 46.146695 46.276925 46.401338
46.520020 46.632626 46.739241 46.839563 46.933672 47.021309 47.102550 47.177175
47.245254 47.306604 47.361287 47.409160 47.450271 47.484515 47.511927 47.532438
47.546069 47.552786 47.552595 47.545497 47.531484 47.510590 47.482793 47.448162
47.406661 47.358397 47.303318 47.241569 47.173088 47.098057 47.016405 46.928354
46.833826 46.733082 46.626040 46.513003 46.393887 46.269036 46.138365 46.002262
45.860642 45.713934 45.562058 45.405481 45.244126 45.078499 44.908527 44.734750
44.557099 44.376145 44.191819 44.004722 43.814783 43.622625 43.428175 43.232072
43.034239 42.835324 42.635242 42.434647 42.233444 42.032282 41.831055 41.630404
41.430207 41.231091 41.032917 40.836293 40.641060 40.447803 40.256342 40.067234
39.880279 39.696000 39.514178 39.335300 39.159127 38.986109 38.815987 38.649170
38.485383 38.324993 38.167710 38.013857 37.863132 37.715814 37.571592 37.430698
37.292815 37.158133 37.026329 36.897548 36.771469 36.648192 36.527397 36.409145
36.293120 36.179341 36.067502 35.957583 35.849289 35.742562 35.637123 35.532877
35.429564 35.327055 35.225111 35.123572 35.022222
35.400000 35.521984 35.644177 35.766819 35.890087 36.014247 36.139440 36.265956
36.393897 36.523573 36.655047 36.788644 36.924383 37.062603 37.203279 37.346759
37.492970 37.642266 37.794526 37.950106 38.108836 38.271071 38.436589 38.605740
38.778253 38.954468 39.134064 39.317369 39.504012 39.694306 39.887831 40.084882
40.284992 40.488438 40.694704 40.904047 41.115910 41.330526 41.547298 41.766437
41.987310 42.210106 42.434160 42.659638 42.885852 43.112947 43.340213 43.567778
43.794919 44.021747 44.247533 44.472374 44.695542 44.917124 45.136399 45.353448
45.567564 45.778824 45.986543 46.190795 46.390924 46.587007 46.778417 46.965236
47.146876 47.323420 47.494324 47.659674 47.818970 47.972302 48.119217 48.259807
48.393665 48.520887 48.641110 48.754429 48.860530 48.959502 49.051078 49.135341
49.212067 49.281331 49.342953 49.396994 49.443316 49.481969 49.512854 49.536004
49.551362 49.558944 49.558731 49.550721 49.534935 49.511355 49.480039 49.440952
49.394194 49.339713 49.277649 49.207938 49.130760 49.046042 48.954006 48.854568
48.747998 48.634204 48.513502 48.385797 48.251452 48.110370 47.962962 47.809132
47.649338 47.483488 47.312085 47.135043 46.952907 46.765596 46.573699 46.377137
46.176538 45.971825 45.763660 45.551969 45.337440 45.119998 44.900354 44.678429
44.454948 44.229825 44.003796 43.776763 43.549462 43.321782 43.094456 42.867355
42.641197 42.415838 42.191975 41.969443 41.748916 41.530204 41.313953 41.099950
40.888803 40.680280 40.474948 40.272551 40.073617 39.877866 39.685780 39.497062
39.312145 39.130714 38.953154 38.779135 38.608991 38.442379 38.279585 38.120255
37.964624 37.812334 37.663570 37.517970 37.375669 37.236307 37.099971 36.966305
36.835350 36.706756 36.580521 36.456306 36.334064 36.213473 36.094444 35.976673
35.860032 35.744240 35.629132 35.514452 35.400000
35.777778 35.913878 36.050230 36.187049 36.324619 36.463118 36.602855 36.743970
36.886795 37.031425 37.178215 37.327211 37.478783 37.632932 37.790039 37.950052
38.113363 38.279865 38.449954 38.623470 38.800809 38.981756 39.166701 39.355375
39.548159 39.744727 39.945450 40.149944 40.358566 40.570877 40.787215 41.007087
41.230809 41.457838 41.688466 41.922098 42.159005 42.398544 42.640960 42.885568
43.132586 43.381293 43.631882 43.883599 44.136613 44.390144 44.644339 44.898400
45.152454 45.405690 45.658220 45.909231 46.158818 46.406176 46.651390 46.893665
47.133083 47.368869 47.601102 47.829034 48.052745 48.271523 48.485448 48.693850
48.896813 49.093711 49.284635 49.469007 49.646922 49.817852 49.981900 50.138588
50.288020 50.429774 50.563954 50.690189 50.808580 50.918809 51.020973 51.114801
51.200382 51.277495 51.346218 51.406374 51.458029 51.501051 51.535489 51.561255
51.578379 51.586819 51.586582 51.577670 51.560072 51.533831 51.498916 51.455414
51.403276 51.342633 51.273420 51.195813 51.109732 51.015400 50.912727 50.801983
50.683071 50.556311 50.421601 50.279311 50.129338 49.972106 49.807511 49.636030
49.457562 49.272637 49.081159 48.883709 48.680195 48.471249 48.256783 48.037474
47.813241 47.584799 47.352071 47.115807 46.875930 46.633220 46.387596 46.139859
45.889923 45.638602 45.385801 45.132339 44.878108 44.623923 44.369660 44.116126
43.863174 43.611593 43.361217 43.112807 42.866172 42.622045 42.380207 42.141355
41.905245 41.672530 41.442941 41.217085 40.994669 40.776252 40.561514 40.350964
40.144261 39.941860 39.743402 39.549286 39.359137 39.173298 38.991383 38.813679
38.639789 38.469945 38.303746 38.141368 37.982408 37.826990 37.674713 37.525647
37.379398 37.235986 37.095027 36.956491 36.820011 36.685508 36.552633 36.421264
36.291074 36.161900 36.033439 35.905489 35.777778
36.155556 36.305955 36.456614 36.607827 36.759816 36.912906 37.067276 37.223281
37.381050 37.540965 37.703105 37.867870 38.035289 38.205777 38.379308 38.556307
38.736692 38.920895 39.108773 39.300762 39.496659 39.696896 39.901210 40.110025
40.323015 40.540595 40.762378 40.988760 41.219294 41.454359 41.693445 41.936909
42.184184 42.435602 42.690537 42.949296 43.211200 43.476527 43.744547 44.015511
44.288645 44.564169 44.841272 45.120145 45.399944 45.680836 45.961952 46.243433
46.524394 46.804957 47.084228 47.362312 47.638315 47.912331 48.183476 48.451833
48.716539 48.977673 49.234396 49.486790 49.734049 49.976258 50.212653 50.443324
50.667554 50.885440 51.096317 51.300288 51.496745 51.685795 51.866890 52.040142
52.205059 52.361756 52.509800 52.649305 52.779896 52.901684 53.014349 53.117993
53.212351 53.297516 53.373273 53.439701 53.496635 53.544137 53.582090 53.610538
53.629410 53.638729 53.638470 53.628634 53.609243 53.580275 53.541799 53.493772
53.436309 53.369349 53.293055 53.207348 53.112443 53.008246 52.895024 52.772672
52.641510 52.501429 52.352803 52.195519 52.030010 51.856162 51.674466 51.484811
51.287748 51.083169 50.871685 50.653193 50.428359 50.197089 49.960102 49.717309
49.469477 49.216523 48.959256 48.697597 48.432389 48.163553 47.891959 47.617526
47.341142 47.062716 46.783150 46.502339 46.221185 45.939567 45.658381 45.377485
45.097758 44.819035 44.542170 44.266973 43.994267 43.723832 43.456454 43.191884
42.930863 42.673114 42.419330 42.169204 41.923376 41.681512 41.444197 41.211072
40.982661 40.758584 40.539307 40.324427 40.114350 39.908658 39.707694 39.511029
39.318944 39.131002 38.947423 38.767764 38.592188 38.420252 38.252060 38.087173
37.925637 37.767026 37.611329 37.458133 37.307375 37.158659 37.011874 36.866645
36.722812 36.580029 36.438092 36.296682 36.155556
36.533333 36.698210 36.863392 37.029143 37.195806 37.363599 37.532897 37.703870
37.876922 38.052170 38.230043 38.410602 38.594293 38.781121 38.971546 39.165511
39.363487 39.565353 39.771584 39.981994 40.197057 40.416523 40.640858 40.869745
41.103641 41.342160 41.585744 41.833940 42.087171 42.344916 42.607576 42.874566
43.146257 43.422002 43.702145 43.985977 44.273810 44.564879 44.859465 45.156750
45.456984 45.759300 46.063917 46.369931 46.677528 46.985773 47.294825 47.603724
47.912606 48.220496 48.527510 48.832669 49.136071 49.436744 49.734775 50.029208
50.320122 50.606587 50.888682 51.165509 51.437150 51.702750 51.962395 52.215281
52.461502 52.700308 52.931801 53.155292 53.370892 53.577973 53.776654 53.966371
54.147249 54.318786 54.481110 54.633783 54.776931 54.910178 55.033643 55.147011
55.250391 55.343525 55.426510 55.499141 55.561497 55.613429 55.654993 55.686091
55.706758 55.716946 55.716665 55.705916 55.684686 55.653023 55.610892 55.558391
55.495461 55.422251 55.338684 55.244961 55.140987 55.027019 54.902948 54.769088
54.625321 54.472022 54.309066 54.136891 53.955369 53.765003 53.565669 53.357931
53.141671 52.917519 52.685364 52.445899 52.199021 51.945484 51.685193 51.418958
51.146693 50.869257 50.586570 50.299534 50.008071 49.713119 49.414598 49.113472
48.809654 48.504126 48.196790 47.888632 47.579539 47.270495 46.961366 46.653121
46.345602 46.039758 45.735400 45.433447 45.133681 44.836979 44.543094 44.252858
43.965989 43.683269 43.404383 43.130057 42.859946 42.594715 42.333989 42.078372
41.827461 41.581795 41.340947 41.105390 40.874678 40.649216 40.428542 40.212993
40.002096 39.796123 39.594591 39.397707 39.204988 39.016573 38.831984 38.651296
38.474038 38.300226 38.129399 37.961515 37.796131 37.633148 37.472145 37.312972
37.155231 36.998723 36.843083 36.688063 36.533333
36.911111 37.090677 37.270555 37.451097 37.632568 37.815360 37.999685 38.185969
38.374370 38.565341 38.758983 38.955771 39.155745 39.359397 39.566703 39.778169
39.993702 40.213815 40.438347 40.667812 40.901978 41.141355 41.385639 41.635330
41.890052 42.150290 42.415594 42.686432 42.962279 43.243579 43.529737 43.821168
44.117206 44.418236 44.723525 45.033425 45.347136 45.664977 45.986089 46.310753
46.638056 46.968245 47.300359 47.634610 47.969997 48.306700 48.643689 48.981113
49.317921 49.654238 49.989002 50.322318 50.653125 50.981512 51.306432 51.627963
51.945080 52.257858 52.565306 52.867500 53.163490 53.453358 53.736205 54.012123
54.280270 54.540748 54.792778 55.036474 55.271124 55.496852 55.713016 55.919746
56.116473 56.303331 56.479820 56.646076 56.801666 56.946724 57.080882 57.204265
57.316569 57.417907 57.508035 57.587049 57.654761 57.711248 57.756378 57.790201
57.812641 57.823723 57.823421 57.811734 57.788688 57.754256 57.708517 57.651416
57.583085 57.503449 57.412693 57.310720 57.197776 57.073746 56.938935 56.793216
56.636958 56.470027 56.292857 56.105309 55.907888 55.700457 55.483588 55.257150
55.021788 54.777378 54.524633 54.263443 53.994586 53.717964 53.434419 53.143864
52.847200 52.544347 52.236260 51.922863 51.605155 51.283061 50.957614 50.628736
50.297482 49.963765 49.628655 49.292048 48.955016 48.617435 48.280367 47.943664
47.608367 47.274300 46.942473 46.612678 46.285887 45.961856 45.641512 45.324575
45.011918 44.703223 44.399307 44.099816 43.805502 43.515979 43.231931 42.952941
42.679623 42.411530 42.149208 41.892185 41.640932 41.394958 41.154662 40.919537
40.689909 40.465260 40.245846 40.031142 39.821333 39.615895 39.414943 39.217959
39.024990 38.835530 38.649559 38.466588 38.286536 38.108934 37.933641 37.760215
37.588460 37.417963 37.248477 37.079625 36.911111
37.288889 37.483348 37.678169 37.873664 38.070237 38.268151 38.467845 38.669526
38.873667 39.080413 39.290266 39.503306 39.720055 39.940527 40.165260 40.394197
40.627886 40.866198 41.109684 41.358140 41.612115 41.871327 42.136319 42.406731
42.683092 42.964961 43.252851 43.546241 43.845621 44.150390 44.461009 44.776802
45.098197 45.424443 45.755931 46.091839 46.432522 46.777087 47.125851 47.477860
47.833389 48.191430 48.552218 48.914698 49.279067 49.644231 50.010353 50.376312
50.742240 51.106998 51.470694 51.832183 52.191554 52.547668 52.900603 53.249237
53.593641 53.932727 54.266563 54.594101 54.915418 55.229516 55.536479 55.835372
56.126290 56.408364 56.681704 56.945512 57.199911 57.444178 57.678448 57.902074
58.115199 58.317254 58.508385 58.688097 58.856537 59.013282 59.158473 59.291757
59.413263 59.522704 59.620193 59.705506 59.778735 59.839715 59.888516 59.925026
59.949291 59.961255 59.960931 59.948321 59.923407 59.886246 59.836792 59.775155
59.701264 59.615285 59.517123 59.407004 59.284812 59.150836 59.004944 58.847491
58.678335 58.497900 58.306037 58.103245 57.889374 57.664997 57.429970 57.184942
56.929778 56.665204 56.391097 56.108258 55.816577 55.516928 55.209215 54.894380
54.572338 54.244092 53.909568 53.569820 53.224779 52.875542 52.522039 52.165399
51.805547 51.443631 51.079561 50.714495 50.348325 49.982202 49.615994 49.250835
48.886564 48.524288 48.163810 47.806200 47.451224 47.099905 46.751970 46.408387
46.068841 45.734242 45.404235 45.079660 44.760125 44.446401 44.138058 43.835793
43.539143 43.248728 42.964056 42.685669 42.413052 42.146667 41.885979 41.631372
41.382295 41.139055 40.901093 40.668639 40.441129 40.218718 40.000846 39.787594
39.578410 39.373303 39.171736 38.973651 38.778529 38.586247 38.396312 38.208539
38.022465 37.837847 37.654258 37.471401 37.288889
37.666667 37.876257 38.086213 38.296947 38.508772 38.722143 38.937315 39.154781
39.374733 39.597697 39.823797 40.053585 40.287115 40.524959 40.767098 41.014116
41.265918 41.523095 41.785473 42.053643 42.327349 42.607179 42.892791 43.184763
43.482668 43.787064 44.097443 44.414338 44.737154 45.066398 45.401390 45.742602
46.089274 46.441840 46.799460 47.162527 47.530125 47.902606 48.278983 48.659562
49.043293 49.430439 49.819892 50.211873 50.605228 51.000137 51.395409 51.791189
52.186261 52.580738 52.973392 53.364314 53.752273 54.137345 54.518313 54.895240
55.266940 55.633472 55.993689 56.347654 56.694271 57.033614 57.364646 57.687456
58.001077 58.305613 58.600173 58.884878 59.158918 59.422428 59.674681 59.915824
60.145215 60.363009 60.568643 60.762278 60.943430 61.112257 61.268350 61.411859
61.542447 61.660249 61.764997 61.856806 61.935472 62.001084 62.053499 62.092780
62.118841 62.131714 62.131370 62.117809 62.091058 62.051085 61.997974 61.931663
61.852294 61.759775 61.654311 61.535786 61.404468 61.260221 61.103382 60.933801
60.751887 60.557480 60.351066 60.132485 59.902300 59.660354 59.407294 59.142971
58.868116 58.582592 58.287213 57.981859 57.667424 57.343805 57.011973 56.671841
56.324451 55.969728 55.608778 55.241536 54.869157 54.491583 54.110010 53.724376
53.335904 52.944524 52.551475 52.156667 51.761341 51.365385 50.970027 50.575123
50.181880 49.790117 49.401003 49.014320 48.631190 48.251352 47.875873 47.504447
47.138078 46.776416 46.420396 46.069624 45.724961 45.385970 45.053434 44.726879
44.407006 44.093306 43.786397 43.485741 43.191871 42.904225 42.623251 42.348367
42.079940 41.817372 41.560948 41.310063 41.064920 40.824914 40.590167 40.360081
40.134700 39.913438 39.696265 39.482612 39.272377 39.065015 38.860359 38.657891
38.457379 38.258343 38.060491 37.863381 37.666667
38.044444 38.269391 38.494758 38.720909 38.948312 39.177274 39.408305 39.641648
39.877849 40.117082 40.359926 40.606480 40.857347 41.112551 41.372710 41.637771
41.908360 42.184342 42.466348 42.754154 43.048390 43.348745 43.655838 43.969268
44.289639 44.616458 44.950307 45.290603 45.637897 45.991515 46.351977 46.718518
47.091618 47.470427 47.855379 48.245542 48.641305 49.041655 49.446933 49.856053
50.269309 50.685549 51.105017 51.526506 51.950215 52.374889 52.800686 53.226318
53.651907 54.076141 54.499112 54.919505 55.337387 55.751449 56.161747 56.566993
56.967235 57.361224 57.749009 58.129391 58.502429 58.866983 59.223129 59.569799
59.907085 60.234000 60.550657 60.856154 61.150623 61.433251 61.704187 61.962709
62.208979 62.442362 62.663030 62.870436 63.064750 63.245508 63.412878 63.566472