# vtk DataFile Version 3.0
Steady-state temperature (Jacobi)
ASCII
DATASET STRUCTURED_POINTS
DIMENSIONS 181 181 1
ORIGIN 0.0 0.0 0.0
SPACING 0.05 0.05 1.0
POINT_DATA 32761
SCALARS Temperature float 1
LOOKUP_TABLE default
32.000000 32.000000 32.000000 32.000000 32.000000 32.000000 32.000000 32.000000
32.000000 32.000000 32.000000 32.000000 32.000000 32.000000 32.000000 32.000000
32.000000 32.000000 32.000000 32.000000 32.000000 32.000000 32.000000 32.000000
32.000000 32.000000 32.000000 32.000000 32.000000 32.000000 32.000000 32.000000
32.000000 32.000000 32.000000 32.000000 32.000000 32.000000 32.000000 32.000000
32.000000 32.000000 32.000000 32.000000 32.000000 32.000000 32.000000 32.000000
32.000000 32.000000 32.000000 32.000000 32.000000 32.000000 32.000000 32.000000
32.000000 32.000000 32.000000 32.000000 32.000000 32.000000 32.000000 32.000000
32.000000 32.000000 32.000000 32.000000 32.000000 32.000000 32.000000 32.000000
32.000000 32.000000 32.000000 32.000000 32.000000 32.000000 32.000000 32.000000
32.000000 32.000000 32.000000 32.000000 32.000000 32.000000 32.000000 32.000000
32.000000 32.000000 32.000000 32.000000 32.000000 32.000000 32.000000 32.000000
32.000000 32.000000 32.000000 32.000000 32.000000 32.000000 32.000000 32.000000
32.000000 32.000000 32.000000 32.000000 32.000000 32.000000 32.000000 32.000000
32.000000 32.000000 32.000000 32.000000 32.000000 32.000000 32.000000 32.000000
32.000000 32.000000 32.000000 32.000000 32.000000 32.000000 32.000000 32.000000
32.000000 32.000000 32.000000 32.000000 32.000000 32.000000 32.000000 32.000000
32.000000 32.000000 32.000000 32.000000 32.000000 32.000000 32.000000 32.000000
32.000000 32.000000 32.000000 32.000000 32.000000 32.000000 32.000000 32.000000
32.000000 32.000000 32.000000 32.000000 32.000000 32.000000 32.000000 32.000000
32.000000 32.000000 32.000000 32.000000 32.000000 32.000000 32.000000 32.000000
32.000000 32.000000 32.000000 32.000000 32.000000 32.000000 32.000000 32.000000
32.000000 32.000000 32.000000 32.000000 32.000000
32.377778 32.405215 32.432660 32.460121 32.487605 32.515122 32.542676 32.570278
32.597932 32.625647 32.653426 32.681280 32.709208 32.737222 32.765319 32.793510
32.821792 32.850173 32.878648 32.907226 32.935900 32.964676 32.993545 33.022513
33.051569 33.080715 33.109941 33.139246 33.168617 33.198052 33.227535 33.257063
33.286617 33.316193 33.345770 33.375341 33.404882 33.434387 33.463828 33.493197
33.522465 33.551622 33.580639 33.609502 33.638181 33.666663 33.694914 33.722922
33.750652 33.778090 33.805203 33.831974 33.858371 33.884378 33.909963 33.935109
33.959785 33.983975 34.007650 34.030795 34.053380 34.075392 34.096805 34.117605
34.137767 34.157281 34.176124 34.194285 34.211744 34.228494 34.244515 34.259801
34.274335 34.288113 34.301120 34.313353 34.324798 34.335454 34.345311 34.354366
34.362611 34.370045 34.376661 34.382459 34.387434 34.391585 34.394909 34.397406
34.399074 34.399913 34.399922 34.399102 34.397453 34.394975 34.391671 34.387540
34.382587 34.376812 34.370220 34.362812 34.354594 34.345569 34.335743 34.325121
34.313711 34.301517 34.288552 34.274818 34.260332 34.245097 34.229131 34.212441
34.195045 34.176951 34.158181 34.138744 34.118663 34.097950 34.076631 34.054717
34.032237 34.009203 33.985646 33.961580 33.937036 33.912028 33.886591 33.860738
33.834504 33.807903 33.780971 33.753721 33.726189 33.698389 33.670355 33.642101
33.613660 33.585045 33.556288 33.527401 33.498415 33.469339 33.440204 33.411017
33.381806 33.352577 33.323356 33.294148 33.264975 33.235842 33.206768 33.177755
33.148821 33.119966 33.091205 33.062537 33.033974 33.005514 32.977166 32.948927
32.920804 32.892792 32.864896 32.837110 32.809437 32.781869 32.754409 32.727047
32.699783 32.672608 32.645520 32.618510 32.591573 32.564701 32.537888 32.511124
32.484404 32.457717 32.431056 32.404413 32.377778
32.755556 32.810435 32.865331 32.920258 32.975233 33.030271 33.085387 33.140595
33.195911 33.251344 33.306913 33.362623 33.418492 33.474522 33.530731 33.587116
33.643694 33.700459 33.757426 33.814586 33.871952 33.929508 33.987266 34.045208
34.103340 34.161641 34.220114 34.278733 34.337498 34.396377 34.455369 34.514435
34.573571 34.632735 34.691917 34.751072 34.810186 34.869208 34.928123 34.986875
35.045445 35.103775 35.161842 35.219585 35.276978 35.333958 35.390497 35.446529
35.502025 35.556918 35.611178 35.664738 35.717567 35.769598 35.820800 35.871108
35.920492 35.968889 36.016269 36.062572 36.107770 36.151808 36.194659 36.236270
36.276619 36.315657 36.353363 36.389694 36.424632 36.458138 36.490196 36.520773
36.549857 36.577417 36.603443 36.627911 36.650813 36.672127 36.691849 36.709960
36.726456 36.741325 36.754563 36.766159 36.776112 36.784414 36.791065 36.796060
36.799397 36.801075 36.801093 36.799453 36.796153 36.791198 36.784586 36.776326
36.766416 36.754865 36.741675 36.726858 36.710416 36.692364 36.672705 36.651458
36.628628 36.604238 36.578294 36.550824 36.521836 36.491362 36.459413 36.426025
36.391213 36.355018 36.317455 36.278572 36.238387 36.196950 36.154285 36.110445
36.065456 36.019375 35.972230 35.924083 35.874962 35.824931 35.774022 35.722301
35.669797 35.616580 35.562679 35.508164 35.453064 35.397447 35.341343 35.284818
35.227901 35.170655 35.113107 35.055318 34.997311 34.939146 34.880842 34.822455
34.764001 34.705532 34.647060 34.588633 34.530260 34.471984 34.413809 34.355775
34.297882 34.240164 34.182620 34.125277 34.068130 34.011204 33.954490 33.898006
33.841743 33.785715 33.729907 33.674331 33.618971 33.563832 33.508898 33.454171
33.399631 33.345279 33.291093 33.237069 33.183187 33.129440 33.075806 33.022275
32.968827 32.915449 32.862122 32.808830 32.755556
33.133333 33.215666 33.298023 33.380428 33.462904 33.545476 33.628163 33.710992
33.793979 33.877149 33.960515 34.044103 34.127919 34.211990 34.296316 34.380922
34.465804 34.550984 34.636452 34.722227 34.808293 34.894667 34.981325 35.068280
35.155502 35.242999 35.330735 35.418714 35.506891 35.595264 35.683784 35.772443
35.861182 35.949991 36.038802 36.127600 36.216312 36.304916 36.393332 36.481534
36.569436 36.657007 36.744156 36.830848 36.916988 37.002537 37.087397 37.171524
37.254820 37.337240 37.418682 37.499100 37.578394 37.656517 37.733369 37.808905
37.883028 37.955693 38.026807 38.096328 38.164167 38.230284 38.294598 38.357071
38.417627 38.476234 38.532822 38.587363 38.639795 38.690092 38.738201 38.784100
38.827742 38.869111 38.908164 38.944889 38.979252 39.011243 39.040833 39.068014
39.092765 39.115080 39.134940 39.152343 39.167276 39.179735 39.189713 39.197208
39.202214 39.204732 39.204760 39.202298 39.197348 39.189911 39.179993 39.167596
39.152728 39.135394 39.115606 39.093368 39.068700 39.041605 39.012110 38.980219
38.945965 38.909355 38.870427 38.829192 38.785694 38.739949 38.692005 38.641884
38.589643 38.535304 38.478932 38.420556 38.360246 38.298034 38.234000 38.168178
38.100654 38.031466 37.960705 37.888414 37.814686 37.739566 37.663154 37.585494
37.506688 37.426783 37.345881 37.264028 37.181326 37.097821 37.013614 36.928748
36.843321 36.757375 36.671004 36.584244 36.497188 36.409867 36.322367 36.234716
36.146994 36.059224 35.971478 35.883775 35.796180 35.708706 35.621413 35.534306
35.447439 35.360811 35.274469 35.188407 35.102665 35.017232 34.932141 34.847377
34.762964 34.678886 34.595159 34.511762 34.428708 34.345971 34.263557 34.181440
34.099619 34.018067 33.936777 33.855721 33.774888 33.694248 33.613787 33.533474
33.453292 33.373211 33.293209 33.213258 33.133333
33.511111 33.620913 33.730748 33.840646 33.950641 34.060761 34.171041 34.281504
34.392187 34.503105 34.614297 34.725774 34.837571 34.949693 35.062175 35.175013
35.288241 35.401848 35.515863 35.630268 35.745087 35.860293 35.975908 36.091894
36.208268 36.324983 36.442049 36.559412 36.677072 36.794968 36.913093 37.031374
37.149800 37.268287 37.386816 37.505295 37.623698 37.741923 37.859938 37.977633
38.094967 38.211825 38.328160 38.443850 38.558843 38.673011 38.786298 38.898573
39.009776 39.119773 39.228502 39.335830 39.441693 39.545958 39.648561 39.749373
39.848332 39.945310 40.040250 40.133030 40.223595 40.311830 40.397685 40.481053
40.561888 40.640094 40.715629 40.788405 40.858387 40.925497 40.989706 41.050943
41.109187 41.164376 41.216492 41.265484 41.311338 41.354012 41.393495 41.429751
41.462775 41.492538 41.519036 41.542248 41.562170 41.578787 41.592099 41.602095
41.608774 41.612132 41.612169 41.608885 41.602282 41.592363 41.579131 41.562597
41.542761 41.519641 41.493240 41.463579 41.430665 41.394525 41.355167 41.312628
41.266918 41.218081 41.166131 41.111120 41.053068 40.992036 40.928047 40.861174
40.791443 40.718938 40.643691 40.565793 40.485286 40.402267 40.316784 40.228943
40.138798 40.046462 39.951993 39.855512 39.757080 39.656824 39.554807 39.451160
39.345948 39.239305 39.131294 39.022052 38.911642 38.800197 38.687780 38.574522
38.460480 38.345785 38.230487 38.114711 37.998504 37.881984 37.765191 37.648236
37.531153 37.414045 37.296936 37.179923 37.063024 36.946323 36.829832 36.713627
36.597711 36.482151 36.366943 36.252143 36.137742 36.023786 35.910260 35.797200
35.684586 35.572445 35.460751 35.349524 35.238732 35.128387 35.018455 34.908939
34.799803 34.691042 34.582618 34.474521 34.366710 34.259168 34.151856 34.044752
33.937814 33.831018 33.724324 33.617700 33.511111
33.888889 34.026182 34.163514 34.300929 34.438462 34.576158 34.714047 34.852176
34.990569 35.129273 35.268305 35.407712 35.547504 35.687725 35.828376 35.969501
36.111090 36.253183 36.395763 36.538862 36.682453 36.826565 36.971158 37.116256
37.261806 37.407826 37.554251 37.701090 37.848269 37.995786 38.143555 38.291566
38.439721 38.588000 38.736295 38.884575 39.032721 39.180695 39.328364 39.475683
39.622510 39.768791 39.914376 40.059203 40.203115 40.346044 40.487827 40.628392
40.767571 40.905288 41.041375 41.175752 41.308252 41.438795 41.567216 41.693435
41.817292 41.938709 42.057533 42.173690 42.287034 42.397497 42.504941 42.609305
42.710462 42.808357 42.902874 42.993967 43.081530 43.165524 43.245856 43.322494
43.395357 43.464420 43.529613 43.590916 43.648271 43.701664 43.751046 43.796407
43.837708 43.874942 43.908080 43.937116 43.962029 43.982816 43.999462 44.011965
44.020317 44.024518 44.024564 44.020456 44.012199 43.999792 43.983246 43.962563
43.937758 43.908836 43.875819 43.838713 43.797549 43.752334 43.703109 43.649883
43.592709 43.531599 43.466614 43.397774 43.325150 43.248768 43.168712 43.085012
42.997765 42.907010 42.812854 42.715343 42.614596 42.510669 42.403689 42.293719
42.180900 42.065297 41.947062 41.826267 41.703068 41.577543 41.449856 41.320085
41.188398 41.054876 40.919689 40.782916 40.644727 40.505201 40.364505 40.222713
40.079991 39.936406 39.792118 39.647189 39.501772 39.355921 39.209779 39.063393
38.916897 38.770329 38.623812 38.477375 38.331129 38.185092 38.039367 37.893962
37.748966 37.604378 37.460276 37.316651 37.173568 37.031008 36.889027 36.747598
36.606765 36.466494 36.326818 36.187699 36.049157 35.911150 35.773687 35.636725
35.500261 35.364249 35.228680 35.093503 34.958702 34.824226 34.690050 34.556125
34.422419 34.288882 34.155479 34.022162 33.888889
34.266667 34.431476 34.596335 34.761290 34.926393 35.091684 35.257220 35.423033
35.589180 35.755686 35.922608 36.089962 36.257804 36.426141 36.595025 36.764454
36.934475 37.105074 37.276295 37.448111 37.620561 37.793604 37.967270 38.141508
38.316339 38.491696 38.667593 38.843948 39.020765 39.197948 39.375491 39.553282
39.731305 39.909433 40.087639 40.265784 40.443827 40.621617 40.799102 40.976119
41.152607 41.328389 41.503396 41.677443 41.850450 42.022225 42.192682 42.361623
42.528956 42.694481 42.858101 43.019615 43.178925 43.335832 43.490237 43.641945
43.790861 43.936794 44.079655 44.219260 44.355526 44.488280 44.617445 44.742862
44.864460 44.982093 45.095701 45.205150 45.310389 45.411299 45.507839 45.599903
45.687458 45.770414 45.848744 45.922372 45.991278 46.055400 46.114721 46.169192
46.218803 46.263511 46.303313 46.338176 46.368098 46.393055 46.413046 46.428057
46.438087 46.443130 46.443185 46.438254 46.428337 46.413442 46.393570 46.368738
46.338947 46.304221 46.264564 46.220009 46.170562 46.116267 46.057133 45.993213
45.924523 45.851127 45.773046 45.690358 45.603090 45.511334 45.415124 45.314568
45.209707 45.100663 44.987488 44.870316 44.749210 44.624318 44.495709 44.363547
44.227910 44.088971 43.946816 43.801630 43.653504 43.502630 43.349103 43.193124
43.034789 42.874302 42.711760 42.547369 42.381224 42.213529 42.044376 41.873966
41.702386 41.529831 41.356380 41.182221 41.007424 40.832169 40.656516 40.480632
40.304569 40.128480 39.952406 39.776489 39.600757 39.425337 39.250246 39.075598
38.901399 38.727747 38.554638 38.382155 38.210284 38.039094 37.868561 37.698741
37.529600 37.361181 37.193443 37.026415 36.860050 36.694366 36.529309 36.364885
36.201038 36.037761 35.874996 35.712726 35.550891 35.389466 35.228388 35.067625
34.907116 34.746821 34.586680 34.426648 34.266667
34.644444 34.836802 35.029215 35.221746 35.414444 35.607374 35.800579 35.994124
36.188046 36.382409 36.577240 36.772604 36.968516 37.165039 37.362176 37.559987
37.758462 37.957655 38.157544 38.358175 38.559511 38.761592 38.964364 39.167860
39.372009 39.576833 39.782244 39.988255 40.194761 40.401760 40.609133 40.816866
41.024819 41.232968 41.441157 41.649346 41.857365 42.065161 42.272548 42.479461
42.685700 42.891188 43.095714 43.299189 43.501393 43.702227 43.901462 44.098994
44.294588 44.488133 44.679393 44.868254 45.054479 45.237954 45.418445 45.595840
45.769911 45.940549 46.107535 46.270766 46.430034 46.585245 46.736204 46.882824
47.024927 47.162435 47.295186 47.423114 47.546073 47.664008 47.776789 47.884372
47.986645 48.083573 48.175060 48.261078 48.341549 48.416452 48.485722 48.549346
48.607271 48.659487 48.705955 48.746670 48.781600 48.810744 48.834080 48.851609
48.863317 48.869206 48.869271 48.863512 48.851936 48.834543 48.811346 48.782347
48.747568 48.707014 48.660715 48.608677 48.550945 48.487525 48.418475 48.343806
48.263588 48.177839 48.086644 47.990028 47.888090 47.780866 47.668470 47.550948
47.428431 47.300975 47.168728 47.031758 46.890230 46.744221 46.593912 46.439392
46.280857 46.118403 45.952240 45.782474 45.609324 45.432902 45.253437 45.071043
44.885956 44.698293 44.508292 44.316068 44.121861 43.925782 43.728069 43.528827
43.328289 43.126552 42.923842 42.720247 42.515982 42.311124 42.105875 41.900303
41.694594 41.488803 41.283103 41.077533 40.872252 40.667286 40.462775 40.258732
40.055283 39.852426 39.650268 39.448797 39.248104 39.048163 38.849049 38.650727
38.453253 38.256585 38.060764 37.865737 37.671532 37.478089 37.285421 37.093464
36.902217 36.711612 36.521635 36.332216 36.143330 35.954906 35.766908 35.579265
35.391933 35.204843 35.017941 34.831161 34.644444
35.022222 35.242162 35.462169 35.682306 35.902645 36.123239 36.344165 36.565467
36.787222 37.009465 37.232272 37.455668 37.679727 37.904459 38.129936 38.356154
38.583179 38.810993 39.039656 39.269132 39.499474 39.730628 39.962638 40.195432
40.429042 40.663379 40.898462 41.134182 41.370544 41.607422 41.844807 42.082550
42.320629 42.558876 42.797253 43.035574 43.273785 43.511683 43.749198 43.986110
44.222337 44.457641 44.691928 44.924949 45.156596 45.386611 45.614875 45.841122
46.065226 46.286918 46.506066 46.722398 46.935781 47.145946 47.352759 47.555957
47.755409 47.950860 48.142186 48.329143 48.511615 48.689373 48.862310 49.030213
49.192988 49.350440 49.502485 49.648949 49.789761 49.924765 50.053904 50.177042
50.294132 50.405057 50.509784 50.608211 50.700315 50.786012 50.865286 50.938069
51.004351 51.064079 51.117246 51.163813 51.203776 51.237106 51.263804 51.283849
51.297243 51.303977 51.304051 51.297466 51.284223 51.264332 51.237794 51.204629
51.164840 51.118456 51.065481 51.005959 50.939896 50.867346 50.788323 50.702894
50.611078 50.512960 50.408566 50.297997 50.181289 50.058563 49.929864 49.795331
49.655024 49.509100 49.357631 49.200795 49.038676 48.871471 48.699276 48.522308
48.340674 48.154605 47.964220 47.769765 47.571365 47.369279 47.163638 46.954709
46.742626 46.527663 46.309953 46.089773 45.867252 45.642666 45.416141 45.187947
44.958203 44.727170 44.494957 44.261817 44.027846 43.793283 43.558211 43.322855
43.087284 42.851704 42.616171 42.380872 42.145847 41.911266 41.677152 41.443656
41.210785 40.978671 40.747307 40.516804 40.287142 40.058414 39.830585 39.603729
39.377802 39.152859 38.928844 38.705796 38.483651 38.262430 38.042062 37.822553
37.603827 37.385875 37.168618 36.952031 36.736034 36.520592 36.305621 36.091077
35.876877 35.662965 35.449264 35.235708 35.022222
35.400000 35.647563 35.895200 36.142990 36.391000 36.639313 36.887988 37.137109
37.386723 37.636918 37.887727 38.139236 38.391466 38.644499 38.898341 39.153070
39.408674 39.665224 39.922693 40.181143 40.440527 40.700896 40.962185 41.224434
41.487554 41.751575 42.016385 42.281999 42.548285 42.815240 43.082711 43.350679
43.618968 43.887542 44.156202 44.424896 44.693405 44.961658 45.229416 45.496591
45.762928 46.028323 46.292502 46.555350 46.816578 47.076058 47.333492 47.588741
47.841501 48.091626 48.338806 48.582892 48.823576 49.060706 49.293978 49.523244
49.748208 49.968726 50.184513 50.395434 50.601220 50.801745 50.996758 51.186146
51.369679 51.547255 51.718666 51.883827 52.042550 52.194765 52.340308 52.479121
52.611063 52.736089 52.854079 52.965001 53.068753 53.165314 53.254601 53.336599
53.411243 53.478525 53.538393 53.590843 53.635838 53.673377 53.703434 53.726009
53.741088 53.748672 53.748755 53.741339 53.726430 53.704029 53.674151 53.636798
53.591998 53.539753 53.480103 53.413052 53.338654 53.256918 53.167913 53.071654
52.968226 52.857651 52.740035 52.615410 52.483899 52.345547 52.200500 52.048815
51.890660 51.726106 51.555344 51.378459 51.195665 51.007062 50.812884 50.613247
50.408404 50.198482 49.983753 49.764356 49.540576 49.312560 49.080606 48.844866
48.605646 48.363099 48.117538 47.869112 47.618135 47.364753 47.109276 46.851843
46.592756 46.332145 46.070300 45.807340 45.543541 45.279007 45.013999 44.748605
44.483067 44.217456 43.951996 43.686739 43.421887 43.157476 42.893686 42.630534
42.368179 42.106621 41.845996 41.586289 41.327613 41.069939 40.813357 40.557823
40.303410 40.050060 39.797824 39.546636 39.296527 39.047422 38.799333 38.552178
38.305954 38.060572 37.816014 37.572187 37.329058 37.086534 36.844568 36.603067
36.361972 36.121193 35.880662 35.640289 35.400000
35.777778 36.053006 36.328320 36.603800 36.879537 37.155602 37.432090 37.709059
37.986607 38.264781 38.543676 38.823325 39.103822 39.385184 39.667499 39.950767
40.235072 40.520392 40.806803 41.094264 41.382840 41.672468 41.963202 42.254956
42.547769 42.841532 43.136269 43.431845 43.728269 44.025381 44.323170 44.621453
44.920199 45.219201 45.518408 45.817589 46.116673 46.415405 46.713697 47.011272
47.308022 47.603652 47.898036 48.190863 48.481992 48.771097 49.058025 49.342440
49.624180 49.902902 50.178436 50.450440 50.718740 50.982995 51.243033 51.498521
51.749289 51.995016 52.235542 52.470559 52.699917 52.923328 53.140656 53.351632
53.556138 53.753927 53.944897 54.128827 54.305631 54.475115 54.637208 54.791741
54.938658 55.077817 55.209175 55.332613 55.448100 55.555537 55.654905 55.746124
55.829184 55.904021 55.970630 56.028963 56.079019 56.120765 56.154200 56.179303
56.196076 56.204508 56.204601 56.196355 56.179771 56.154860 56.121624 56.080086
56.030246 55.972141 55.905773 55.831193 55.748406 55.657479 55.558423 55.451322
55.336194 55.213144 55.082200 54.943487 54.797047 54.643028 54.481485 54.312591
54.136417 53.953161 53.762912 53.565891 53.362205 53.152102 52.935702 52.713278
52.484966 52.251060 52.011710 51.767228 51.517774 51.263676 51.005102 50.742392
50.475718 50.205425 49.931688 49.654854 49.375094 49.092756 48.808001 48.521172
48.232420 47.942079 47.650288 47.357364 47.063432 46.768794 46.473557 46.178002
45.882218 45.586465 45.290813 44.995498 44.700569 44.406240 44.112540 43.819657
43.527600 43.236533 42.946446 42.657479 42.369604 42.082936 41.797432 41.513182
41.230128 40.948339 40.667744 40.388388 40.110190 39.833176 39.557255 39.282432
39.008611 38.735778 38.463833 38.192744 37.922407 37.652778 37.383751 37.115267
36.847222 36.579545 36.312136 36.044912 35.777778
36.155556 36.458497 36.761531 37.064757 37.368258 37.672139 37.976473 38.281365
38.586877 38.893116 39.200126 39.508013 39.816806 40.126608 40.437428 40.749362
41.062400 41.376630 41.692021 42.008651 42.326463 42.645524 42.965755 43.287206
43.609771 43.933487 44.258220 44.583988 44.910631 45.238146 45.566348 45.895211
46.224522 46.554235 46.884108 47.214076 47.543868 47.873397 48.202368 48.530673
48.857994 49.184201 49.508959 49.832117 50.153323 50.472411 50.789016 51.102959
51.413864 51.721544 52.025619 52.325896 52.621995 52.913723 53.200704 53.482747
53.759488 54.030744 54.296163 54.555574 54.808646 55.055219 55.294986 55.527803
55.753389 55.971618 56.182236 56.385136 56.580093 56.767020 56.945718 57.116120
57.278054 57.431470 57.576225 57.712280 57.839518 57.957915 58.067373 58.167880
58.259358 58.341800 58.415149 58.479402 58.534517 58.580494 58.617305 58.644950
58.663416 58.672701 58.672803 58.663722 58.645464 58.618031 58.581439 58.535689
58.480813 58.416810 58.343727 58.261566 58.170389 58.070204 57.961089 57.843061
57.716219 57.580588 57.436290 57.283363 57.121955 56.952118 56.774025 56.587746
56.393483 56.191323 55.981498 55.764114 55.539430 55.307572 55.068827 54.823338
54.571419 54.313228 54.049102 53.779215 53.503921 53.223405 52.938036 52.648007
52.353697 52.055300 51.753203 51.447599 51.138873 50.827212 50.513000 50.196413
49.877824 49.557398 49.235495 48.912262 48.588043 48.262968 47.937358 47.611323
47.285162 46.958964 46.633003 46.307344 45.982235 45.657720 45.334019 45.011154
44.689318 44.368510 44.048895 43.730455 43.413325 43.097468 42.782995 42.469850
42.158118 41.847728 41.538740 41.231072 40.924759 40.619706 40.315929 40.013323
39.711883 39.411498 39.112142 38.813703 38.516135 38.219324 37.923210 37.627677
37.332652 37.038021 36.743699 36.449575 36.155556
36.533333 36.864036 37.194845 37.525859 37.857189 38.188923 38.521177 38.854026
39.187588 39.521922 39.857146 40.193302 40.530505 40.868777 41.208229 41.548863
41.890779 42.233958 42.578491 42.924332 43.271562 43.620107 43.970033 44.321241
44.673778 45.027517 45.382486 45.738528 46.095650 46.453665 46.812559 47.172113
47.532289 47.892838 48.253699 48.614593 48.975433 49.335913 49.695920 50.055123
50.413387 50.770353 51.125867 51.479549 51.831224 52.180497 52.527176 52.870852
53.211322 53.548170 53.881182 54.209940 54.534228 54.853629 55.167930 55.476723
55.779798 56.076762 56.367417 56.651389 56.928491 57.198375 57.460872 57.715658
57.962588 58.201365 58.431865 58.653824 58.867139 59.071577 59.267057 59.453378
59.630478 59.798187 59.956460 60.105157 60.244246 60.373614 60.493242 60.603039
60.702996 60.793043 60.873178 60.943347 61.003552 61.053757 61.093963 61.124149
61.144316 61.154454 61.154565 61.144650 61.124709 61.094755 61.054787 61.004831
60.944885 60.874990 60.795144 60.705405 60.605775 60.496328 60.377075 60.248109
60.109451 59.961218 59.803442 59.636268 59.459741 59.274035 59.079215 58.875483
58.662925 58.441775 58.212139 57.974284 57.728337 57.474598 57.213214 56.944514
56.668667 56.386028 56.096783 55.801312 55.499814 55.192689 54.880145 54.562597
54.240259 53.913554 53.582698 53.248117 52.910022 52.568837 52.224766 51.878224
51.529401 51.178702 50.826300 50.472580 50.117699 49.762021 49.405678 49.049012
48.692133 48.335353 47.978758 47.622634 47.267041 46.912233 46.558248 46.205310
45.853430 45.502802 45.153417 44.805436 44.458829 44.113729 43.770084 43.427998
43.087403 42.748374 42.410829 42.074816 41.740238 41.407120 41.075354 40.744941
40.415765 40.087804 39.760937 39.435123 39.110236 38.786218 38.462940 38.140329
37.818259 37.496639 37.175349 36.854286 36.533333
36.911111 37.269630 37.628261 37.987125 38.346324 38.705984 39.066195 39.427086
39.788730 40.151259 40.514728 40.879266 41.244910 41.611783 41.979901 42.349380
42.720213 43.092504 43.466222 43.841459 44.218155 44.596389 44.976070 45.357261
45.739840 46.123850 46.509138 46.895723 47.283422 47.672230 48.061928 48.452488
48.843658 49.235382 49.627375 50.019555 50.411605 50.803414 51.194636 51.585135
51.974534 52.362672 52.749149 53.133780 53.516143 53.896034 54.273013 54.646862
55.017127 55.383579 55.745759 56.103430 56.456134 56.803632 57.145473 57.481421
57.811038 58.134098 58.450180 58.759073 59.060380 59.353907 59.639288 59.916347
60.184750 60.444347 60.694836 60.936092 61.167849 61.390005 61.602330 61.804746
61.997056 62.179203 62.351024 62.512479 62.663436 62.803869 62.933672 63.052833
63.161269 63.258976 63.345891 63.422016 63.487306 63.541765 63.585362 63.618102
63.639968 63.650964 63.651084 63.640330 63.618709 63.586219 63.542880 63.488690
63.423682 63.347852 63.261250 63.163876 63.055795 62.937012 62.807616 62.667617
62.517129 62.356175 62.184893 62.003324 61.811635 61.609885 61.398275 61.176883
60.945946 60.705566 60.456013 60.197414 59.930076 59.654150 59.369976 59.077730
58.777784 58.470333 58.155779 57.834336 57.506429 57.172285 56.832349 56.486858
56.136268 55.780819 55.420976 55.056977 54.689286 54.318135 53.943982 53.567047
53.187777 52.806375 52.423271 52.038648 51.652915 51.266233 50.878984 50.491303
50.103546 49.715821 49.328453 48.941521 48.555319 48.169900 47.785522 47.402213
47.020197 46.639476 46.260241 45.882469 45.506319 45.131745 44.758874 44.387639
44.018137 43.650282 43.284142 42.919616 42.556743 42.195409 41.835628 41.477275
41.120338 40.764685 40.410282 40.056993 39.704761 39.353447 39.002978 38.653215
38.304066 37.955395 37.607098 37.259042 36.911111
37.288889 37.675275 38.061789 38.448548 38.835688 39.223314 39.611565 40.000532
40.390357 40.781112 41.172939 41.565890 41.960104 42.355610 42.752540 43.150901
43.550814 43.952260 44.355348 44.760029 45.166399 45.574379 45.984046 46.395288
46.808163 47.222525 47.638409 48.055636 48.474213 48.893927 49.314757 49.736454
50.158970 50.582017 51.005520 51.429153 51.852812 52.276138 52.698996 53.120994
53.541969 53.961499 54.379395 54.795209 55.208727 55.619481 56.027236 56.431509
56.832048 57.228360 57.620183 58.007021 58.388608 58.764450 59.134283 59.497623
59.854214 60.203590 60.545508 60.879524 61.205414 61.522765 61.831374 62.130861
62.421048 62.701594 62.972347 63.233004 63.483441 63.723394 63.952768 64.171335
64.379024 64.575647 64.761154 64.935389 65.098323 65.249830 65.389894 65.518419
65.635399 65.740760 65.834504 65.916577 65.986985 66.045689 66.092698 66.127988
66.151563 66.163414 66.163543 66.151952 66.128640 66.093621 66.046890 65.988474
65.918369 65.836615 65.743207 65.638205 65.521606 65.393490 65.253861 65.102823
64.940392 64.766697 64.581769 64.385770 64.178748 63.960898 63.732293 63.493164
63.243608 62.983895 62.714149 62.434679 62.145637 61.847371 61.540060 61.224090
60.899664 60.567201 60.226928 59.879294 59.524542 59.163147 58.795363 58.421684
58.042371 57.657928 57.268620 56.874951 56.477182 56.075816 55.671103 55.263534
54.853344 54.441009 54.026743 53.611001 53.193972 52.776086 52.357505 51.938628
51.519590 51.100757 50.682233 50.264350 49.847181 49.431024 49.015922 48.602134
48.189676 47.778769 47.369403 46.961764 46.555813 46.151702 45.749370 45.348934
44.950313 44.553590 44.158664 43.765591 43.374253 42.984675 42.596728 42.210409
41.825579 41.442211 41.060157 40.679367 40.299691 39.921056 39.543310 39.166363
38.790064 38.414305 38.038941 37.663849 37.288889
37.666667 38.080978 38.495424 38.910147 39.325269 39.740941 40.157269 40.574407
40.992445 41.411536 41.831752 42.253243 42.676058 43.100342 43.526119 43.953526
44.382559 44.813345 45.245848 45.680183 46.116281 46.554239 46.993957 47.435507
47.878757 48.323755 48.770330 49.218507 49.668076 50.119031 50.571125 51.024322
51.478335 51.933097 52.388280 52.843784 53.299245 53.754530 54.209235 54.663197
55.115979 55.567386 56.016949 56.464446 56.909383 57.351511 57.790316 58.225530
58.656622 59.083312 59.505060 59.921576 60.332323 60.737008 61.135100 61.526313
61.910131 62.286279 62.654264 63.013830 63.364513 63.706079 64.038099 64.360367
64.672494 64.974302 65.265445 65.545776 65.814992 66.072976 66.319469 66.554383
66.777500 66.988759 67.187980 67.375125 67.550048 67.712730 67.863056 68.001022
68.126538 68.239610 68.340172 68.428233 68.503747 68.566725 68.617136 68.654989
68.680269 68.692980 68.693119 68.680685 68.655688 68.618123 68.568009 68.505341
68.430151 68.342431 68.242230 68.129541 68.004433 67.866904 67.717045 67.554864
67.380480 67.193913 66.995313 66.784720 66.562319 66.328172 66.082503 65.825401
65.557130 65.277808 64.987745 64.687087 64.376189 64.055227 63.724598 63.384510
63.035396 62.677494 62.311271 61.936987 61.555142 61.166010 60.770115 60.367745
59.959437 59.545484 59.126432 58.702572 58.274450 57.842348 57.406804 56.968086
56.526717 56.082945 55.637273 55.189923 54.741371 54.291812 53.841691 53.391171
52.940664 52.490300 52.040454 51.591224 51.142944 50.695680 50.249728 49.805119
49.362112 48.920706 48.481119 48.043324 47.607498 47.173589 46.741737 46.311864
45.884075 45.458270 45.034521 44.612710 44.192875 43.774884 43.358744 42.944311
42.531565 42.120350 41.710622 41.302220 40.895074 40.489021 40.083971 39.679758
39.276276 38.873361 38.470889 38.068703 37.666667
38.044444 38.486735 38.929177 39.371909 39.815091 40.258847 40.703342 41.148685
41.595041 42.042500 42.491228 42.941289 43.392847 43.845941 44.300726 44.757216
45.215552 45.675720 46.137847 46.601884 47.067944 47.535941 48.005968 48.477902
48.951812 49.427537 49.905118 50.384354 50.865257 51.347583 51.831313 52.316162
52.802075 53.288723 53.776019 54.263590 54.751313 55.238775 55.725815 56.211982
56.697081 57.180625 57.662386 58.141846 58.618746 59.092542 59.562952 60.029411
60.491616 60.948991 61.401220 61.847722 62.288176 62.722003 63.148885 63.568256
63.979807 64.382994 64.777523 65.162881 65.538797 65.904791 66.260624 66.605857
66.940280 67.263502 67.575347 67.875472 68.163734 68.439838 68.703677 68.954999
69.193730 69.419662 69.632746 69.832816 70.019846 70.193705 70.354383 70.501780