# vtk DataFile Version 3.0
Steady-state temperature (Jacobi)
ASCII
DATASET STRUCTURED_POINTS
DIMENSIONS 181 181 1
ORIGIN 0.0 0.0 0.0
SPACING 0.05 0.05 1.0
POINT_DATA 32761
SCALARS Temperature float 1
LOOKUP_TABLE default
32.000000 32.000000 32.000000 32.000000 32.000000 32.000000 32.000000 32.000000
32.000000 32.000000 32.000000 32.000000 32.000000 32.000000 32.000000 32.000000
32.000000 32.000000 32.000000 32.000000 32.000000 32.000000 32.000000 32.000000
32.000000 32.000000 32.000000 32.000000 32.000000 32.000000 32.000000 32.000000
32.000000 32.000000 32.000000 32.000000 32.000000 32.000000 32.000000 32.000000
32.000000 32.000000 32.000000 32.000000 32.000000 32.000000 32.000000 32.000000
32.000000 32.000000 32.000000 32.000000 32.000000 32.000000 32.000000 32.000000
32.000000 32.000000 32.000000 32.000000 32.000000 32.000000 32.000000 32.000000
32.000000 32.000000 32.000000 32.000000 32.000000 32.000000 32.000000 32.000000
32.000000 32.000000 32.000000 32.000000 32.000000 32.000000 32.000000 32.000000
32.000000 32.000000 32.000000 32.000000 32.000000 32.000000 32.000000 32.000000
32.000000 32.000000 32.000000 32.000000 32.000000 32.000000 32.000000 32.000000
32.000000 32.000000 32.000000 32.000000 32.000000 32.000000 32.000000 32.000000
32.000000 32.000000 32.000000 32.000000 32.000000 32.000000 32.000000 32.000000
32.000000 32.000000 32.000000 32.000000 32.000000 32.000000 32.000000 32.000000
32.000000 32.000000 32.000000 32.000000 32.000000 32.000000 32.000000 32.000000
32.000000 32.000000 32.000000 32.000000 32.000000 32.000000 32.000000 32.000000
32.000000 32.000000 32.000000 32.000000 32.000000 32.000000 32.000000 32.000000
32.000000 32.000000 32.000000 32.000000 32.000000 32.000000 32.000000 32.000000
32.000000 32.000000 32.000000 32.000000 32.000000 32.000000 32.000000 32.000000
32.000000 32.000000 32.000000 32.000000 32.000000 32.000000 32.000000 32.000000
32.000000 32.000000 32.000000 32.000000 32.000000 32.000000 32.000000 32.000000
32.000000 32.000000 32.000000 32.000000 32.000000
32.377778 32.366271 32.354795 32.343383 32.332063 32.320872 32.309832 32.298984
32.288344 32.277955 32.267830 32.258014 32.248512 32.239372 32.230593 32.222225
32.214261 32.206752 32.199684 32.193109 32.187006 32.181430 32.176349 32.171823
32.167810 32.164373 32.161460 32.159136 32.157341 32.156142 32.155469 32.155392
32.155830 32.156859 32.158385 32.160487 32.163063 32.166194 32.169768 32.173870
32.178378 32.183380 32.188746 32.194566 32.200702 32.207247 32.214057 32.221228
32.228608 32.236296 32.244136 32.252229 32.260416 32.268798 32.277217 32.285774
32.294309 32.302927 32.311469 32.320038 32.328480 32.336897 32.345138 32.353307
32.361257 32.369090 32.376667 32.384086 32.391219 32.398157 32.404783 32.411184
32.417252 32.423069 32.428537 32.433732 32.438567 32.443112 32.447289 32.451161
32.454663 32.457846 32.460659 32.463144 32.465259 32.467037 32.468449 32.469517
32.470223 32.470578 32.470577 32.470218 32.469508 32.468437 32.467021 32.465238
32.463118 32.460629 32.457810 32.454620 32.451112 32.447232 32.443045 32.438491
32.433645 32.428437 32.422955 32.417123 32.411037 32.404617 32.397969 32.391007
32.383847 32.376399 32.368788 32.360920 32.352929 32.344717 32.336428 32.327958
32.319459 32.310828 32.302218 32.293526 32.284910 32.276266 32.267754 32.259271
32.250976 32.242767 32.234803 32.226982 32.219460 32.212139 32.205170 32.198455
32.192141 32.186133 32.180569 32.175360 32.170635 32.166307 32.162497 32.159121
32.156291 32.153927 32.152130 32.150824 32.150101 32.149886 32.150263 32.151160
32.152650 32.154665 32.157268 32.160395 32.164097 32.168314 32.173088 32.178362
32.184169 32.190454 32.197241 32.204479 32.212183 32.220304 32.228850 32.237773
32.247075 32.256711 32.266675 32.276924 32.287448 32.298204 32.309177 32.320327
32.331634 32.343061 32.354583 32.366164 32.377778
32.755556 32.732551 32.709611 32.686793 32.664170 32.641791 32.619732 32.598035
32.576781 32.556001 32.535783 32.516145 32.497179 32.478892 32.461380 32.444635
32.428760 32.413731 32.399655 32.386493 32.374356 32.363190 32.353109 32.344040
32.336106 32.329212 32.323488 32.318821 32.315344 32.312925 32.311705 32.311528
32.312543 32.314575 32.317778 32.321957 32.327271 32.333506 32.340828 32.349004
32.358205 32.368179 32.379105 32.390714 32.403190 32.416250 32.430082 32.444389
32.459367 32.474708 32.490611 32.506760 32.523358 32.540086 32.557148 32.574223
32.591518 32.608714 32.626018 32.643116 32.660213 32.677005 32.693696 32.709990
32.726090 32.741712 32.757055 32.771851 32.786292 32.800128 32.813542 32.826304
32.838588 32.850184 32.861253 32.871608 32.881396 32.890453 32.898909 32.906625
32.913713 32.920056 32.925750 32.930699 32.934981 32.938524 32.941382 32.943510
32.944939 32.945646 32.945643 32.944928 32.943492 32.941357 32.938491 32.934940
32.930649 32.925689 32.919983 32.913628 32.906525 32.898794 32.890320 32.881243
32.871433 32.861053 32.849956 32.838329 32.826010 32.813209 32.799752 32.785867
32.771373 32.756518 32.741110 32.725415 32.709236 32.692854 32.676067 32.659170
32.641958 32.624735 32.607295 32.589951 32.572496 32.555247 32.537998 32.521069
32.504254 32.487873 32.471722 32.456115 32.440854 32.426246 32.412094 32.398697
32.385864 32.373879 32.362558 32.352169 32.342534 32.333906 32.326112 32.319387
32.313565 32.308862 32.305119 32.302531 32.300946 32.300540 32.301168 32.302984
32.305850 32.309900 32.315004 32.321275 32.328588 32.337039 32.346507 32.357070
32.368614 32.381197 32.394710 32.409197 32.424552 32.440803 32.457849 32.475703
32.494270 32.513547 32.533443 32.553945 32.574966 32.596480 32.618404 32.640704
32.663301 32.686151 32.709181 32.732338 32.755556
33.133333 33.098852 33.064462 33.030268 32.996350 32.962819 32.929744 32.897245
32.865375 32.834262 32.803943 32.774553 32.746112 32.718760 32.692498 32.667475
32.643668 32.621234 32.600126 32.580508 32.562311 32.545704 32.530591 32.517152
32.505260 32.495105 32.486532 32.479737 32.474537 32.471138 32.469325 32.469313
32.470857 32.474182 32.479011 32.485579 32.493579 32.503255 32.514270 32.526878
32.540714 32.556042 32.572468 32.590266 32.609019 32.629009 32.649797 32.671672
32.694180 32.717615 32.741509 32.766163 32.791099 32.816623 32.842252 32.868296
32.894272 32.920491 32.946476 32.972537 32.998209 33.023798 33.048854 33.073681
33.097845 33.121644 33.144667 33.167204 33.188869 33.209941 33.230062 33.249497
33.267918 33.285575 33.302171 33.317938 33.332611 33.346399 33.359074 33.370819
33.381441 33.391097 33.399628 33.407163 33.413577 33.418970 33.423253 33.426491
33.428631 33.429708 33.429703 33.428616 33.426464 33.423215 33.418921 33.413515
33.407087 33.399537 33.390989 33.381313 33.370670 33.358901 33.346200 33.332382
33.317676 33.301872 33.285234 33.267530 33.249056 33.229562 33.209377 33.188232
33.166488 33.143861 33.120740 33.096832 33.072549 33.047591 33.022392 32.996644
32.970801 32.944551 32.918362 32.891922 32.865705 32.839402 32.813492 32.787666
32.762405 32.737402 32.713135 32.689302 32.666370 32.644043 32.622776 32.602280
32.582991 32.564629 32.547610 32.531661 32.517174 32.503886 32.492164 32.481753
32.472992 32.465637 32.459997 32.455839 32.453441 32.452579 32.453502 32.455997
32.460281 32.466150 32.473793 32.483015 32.493975 32.506488 32.520682 32.536383
32.553691 32.572440 32.592705 32.614326 32.637355 32.661637 32.687202 32.713903
32.741747 32.770595 32.800433 32.831130 32.862653 32.894876 32.927753 32.961164
32.995047 33.029290 33.063818 33.098528 33.133333
33.511111 33.465179 33.419378 33.373824 33.328660 33.283986 33.239959 33.196658
33.154250 33.112796 33.072472 33.033315 32.995513 32.959076 32.924200 32.890870
32.859291 32.829416 32.801462 32.775349 32.751303 32.729211 32.709309 32.691448
32.675874 32.662401 32.651286 32.642304 32.635724 32.631280 32.629253 32.629337
32.631826 32.636370 32.643278 32.652157 32.663332 32.676367 32.691598 32.708554
32.727583 32.748174 32.770688 32.794583 32.820228 32.847051 32.875433 32.904776
32.935469 32.966894 32.999448 33.032498 33.066449 33.100656 33.135531 33.170427
33.205757 33.240879 33.276207 33.311110 33.346001 33.380263 33.414308 33.447540
33.480364 33.512213 33.543481 33.573632 33.603050 33.631233 33.658549 33.684536
33.709541 33.733144 33.755668 33.776739 33.796650 33.815072 33.832270 33.847960
33.862371 33.875267 33.886841 33.896902 33.905604 33.912804 33.918613 33.922936
33.925840 33.927277 33.927270 33.925819 33.922901 33.918563 33.912738 33.905521
33.896801 33.886719 33.875122 33.862201 33.847762 33.832041 33.814807 33.796345
33.776389 33.755269 33.732689 33.709023 33.683948 33.657883 33.630481 33.602201
33.572677 33.542407 33.511008 33.479015 33.446032 33.412624 33.378388 33.343915
33.308795 33.273642 33.238041 33.202623 33.166972 33.131730 33.096481 33.061871
33.027487 32.993972 32.960920 32.928965 32.897705 32.867761 32.838741 32.811242
32.784883 32.760237 32.736932 32.715512 32.695616 32.677754 32.661579 32.647564
32.635375 32.625446 32.617457 32.611802 32.608174 32.606926 32.607765 32.611004
32.616363 32.624113 32.633987 32.646216 32.660548 32.677174 32.695851 32.716736
32.739597 32.764553 32.791383 32.820174 32.850715 32.883059 32.917006 32.952578
32.989584 33.028020 33.067704 33.108606 33.150552 33.193489 33.237254 33.281773
33.326890 33.372515 33.418503 33.464746 33.511111
33.888889 33.831550 33.774365 33.717509 33.661116 33.605375 33.550399 33.496390
33.443439 33.391760 33.341416 33.292633 33.245445 33.200090 33.156567 33.115128
33.075734 33.038650 33.003799 32.971457 32.941505 32.914233 32.889477 32.867540
32.848212 32.831810 32.818076 32.807342 32.799297 32.794291 32.791961 32.792672
32.796009 32.802354 32.811238 32.823061 32.837302 32.854375 32.873711 32.895739
32.919842 32.946464 32.974944 33.005740 33.038150 33.072646 33.108490 33.146166
33.184908 33.225210 33.266283 33.308630 33.351448 33.395246 33.439213 33.483866
33.528392 33.573312 33.617822 33.662442 33.706386 33.750171 33.793035 33.835490
33.876804 33.917478 33.956820 33.995317 34.032317 34.068293 34.102638 34.135802
34.167232 34.197347 34.225650 34.252529 34.277541 34.301038 34.322635 34.342643
34.360736 34.377180 34.391707 34.404535 34.415456 34.424635 34.431925 34.437436
34.441080 34.442912 34.442903 34.441054 34.437392 34.431862 34.424553 34.415353
34.404408 34.391555 34.376999 34.360524 34.342395 34.322347 34.300706 34.277159
34.252092 34.225151 34.196778 34.166585 34.135068 34.101806 34.067352 34.031257
33.994122 33.955477 33.915972 33.875117 33.833604 33.790931 33.747827 33.703779
33.659548 33.614615 33.569764 33.524475 33.479548 33.434462 33.390027 33.345725
33.302366 33.259438 33.217744 33.176778 33.137329 33.098900 33.062258 33.026918
32.993616 32.961880 32.932412 32.904753 32.879566 32.856406 32.835891 32.817593
32.802083 32.788950 32.778714 32.770980 32.766219 32.764053 32.764899 32.768399
32.774917 32.784111 32.796295 32.811142 32.828919 32.849311 32.872538 32.898302
32.926773 32.957669 32.991118 33.026848 33.064945 33.105153 33.147517 33.191791
33.237988 33.285871 33.335420 33.386409 33.438788 33.492344 33.546997 33.602547
33.658890 33.715838 33.773265 33.830997 33.888889
34.266667 34.197964 34.129460 34.061329 33.993790 33.926994 33.861176 33.796460
33.733097 33.671180 33.610976 33.552542 33.496160 33.441850 33.389909 33.340312
33.293373 33.249021 33.207585 33.168945 33.133445 33.100915 33.071713 33.045614
33.022993 33.003568 32.987732 32.975142 32.966210 32.960531 32.958535 32.959755
32.964641 32.972660 32.984284 32.998917 33.017048 33.038020 33.062342 33.089298
33.119413 33.151915 33.187349 33.224890 33.265098 33.307104 33.351482 33.397323
33.445216 33.494220 33.544936 33.596399 33.649219 33.702420 33.756618 33.810833
33.865686 33.920202 33.975006 34.029137 34.083219 34.136316 34.189046 34.240509
34.291313 34.340598 34.388960 34.435587 34.481057 34.524613 34.566807 34.606944
34.645545 34.681978 34.716730 34.749235 34.779939 34.808345 34.834852 34.859032
34.881235 34.901102 34.918927 34.934422 34.947820 34.958906 34.967848 34.974503
34.978972 34.981185 34.981175 34.978941 34.974450 34.967773 34.958807 34.947696
34.934270 34.918744 34.900886 34.880980 34.858735 34.834507 34.807947 34.779482
34.748710 34.716131 34.681295 34.644768 34.606062 34.565809 34.523484 34.479784
34.434154 34.387349 34.338790 34.289288 34.238246 34.186521 34.133502 34.080090
34.025665 33.971158 33.915946 33.860986 33.805652 33.750917 33.696157 33.642352
33.588882 33.536722 33.485261 33.435460 33.386718 33.339975 33.294639 33.251620
33.210342 33.171673 33.135053 33.101307 33.069890 33.041577 33.015840 32.993398
32.973745 32.957539 32.944294 32.934607 32.928013 32.925047 32.925264 32.929135
32.936236 32.946978 32.960954 32.978514 32.999273 33.023520 33.050887 33.081609
33.115333 33.152240 33.191994 33.234723 33.280109 33.328230 33.378782 33.431800
33.486993 33.544353 33.603604 33.664701 33.727379 33.791561 33.856995 33.923571
33.991054 34.059306 34.128107 34.197295 34.266667
34.644444 34.564443 34.484662 34.405345 34.326684 34.248947 34.172294 34.097012
34.023229 33.951249 33.881161 33.813288 33.747676 33.684664 33.624252 33.566798
33.512248 33.460977 33.412878 33.368344 33.327208 33.289881 33.256133 33.226396
33.200372 33.178515 33.160457 33.146672 33.136722 33.131103 33.129302 33.131838
33.138124 33.148701 33.162907 33.181306 33.203163 33.229064 33.258201 33.291182
33.327130 33.366676 33.408878 33.454385 33.502199 33.552986 33.605698 33.661018
33.717855 33.776906 33.837049 33.898992 33.961593 34.025570 34.089769 34.154916
34.219858 34.285324 34.350176 34.415143 34.479110 34.542804 34.605144 34.666850
34.726884 34.785953 34.843075 34.898937 34.952619 35.004782 35.054573 35.102624
35.148154 35.191758 35.232731 35.271622 35.307807 35.341785 35.373012 35.401929
35.428077 35.451831 35.472816 35.491340 35.507110 35.520361 35.530884 35.538838
35.544098 35.546743 35.546731 35.544062 35.538777 35.530797 35.520246 35.506965
35.491162 35.472603 35.451578 35.427779 35.401583 35.372610 35.341321 35.307274
35.271011 35.232032 35.190961 35.147248 35.101596 35.053408 35.003465 34.951134
34.897265 34.841196 34.783845 34.724522 34.664210 34.602198 34.539523 34.475461
34.411092 34.345687 34.280358 34.214374 34.148871 34.083118 34.018264 33.953582
33.890223 33.827466 33.766453 33.706473 33.648646 33.592273 33.538444 33.486475
33.437412 33.390589 33.347004 33.306007 33.268540 33.233974 33.203187 33.175572
33.151940 33.131705 33.115608 33.103086 33.094808 33.090235 33.089960 33.093471
33.101285 33.112914 33.128803 33.148486 33.172339 33.199916 33.231525 33.266742
33.305809 33.348323 33.394462 33.443841 33.496582 33.552318 33.611114 33.672620
33.736852 33.803475 33.872459 33.943485 34.016480 34.091141 34.167358 34.244844
34.323455 34.402920 34.483065 34.563641 34.644444
35.022222 34.930984 34.840014 34.749550 34.659885 34.571224 34.483886 34.398037
34.314020 34.231957 34.152213 34.074864 34.000293 33.928527 33.859968 33.794586
33.732805 33.674531 33.620210 33.569684 33.523417 33.481182 33.443466 33.409967
33.381194 33.356767 33.337221 33.322093 33.311944 33.306225 33.305523 33.309205
33.317883 33.330837 33.348706 33.370683 33.397432 33.428063 33.463265 33.502065
33.545176 33.591550 33.641922 33.695173 33.752058 33.811396 33.873962 33.938521
34.005864 34.074714 34.145878 34.218046 34.292037 34.366524 34.442335 34.518139
34.594769 34.670903 34.747376 34.822887 34.898273 34.972265 35.045694 35.117337
35.188015 35.256562 35.323780 35.388571 35.451712 35.512181 35.570723 35.626397
35.679908 35.730404 35.778541 35.823558 35.866057 35.905369 35.942034 35.975478
36.006170 36.033633 36.058261 36.079670 36.098175 36.113487 36.125833 36.135023
36.141193 36.144249 36.144235 36.141152 36.134953 36.125734 36.113355 36.098009
36.079468 36.058017 36.033344 36.005831 35.975081 35.941575 35.904839 35.865448
35.822859 35.777743 35.729493 35.678873 35.625222 35.569392 35.510677 35.450015
35.386660 35.321632 35.254152 35.185316 35.114321 35.042327 34.968515 34.894102
34.818258 34.742246 34.665227 34.588503 34.511231 34.434734 34.358174 34.282881
34.208024 34.134926 34.062769 33.992856 33.924382 33.858620 33.794777 33.734088
33.675775 33.621021 33.569068 33.521036 33.476190 33.435579 33.398491 33.365902
33.337123 33.313049 33.293018 33.277843 33.266887 33.260878 33.259208 33.262518
33.270227 33.282893 33.299960 33.321904 33.348196 33.379229 33.414502 33.454328
33.498231 33.546452 33.598534 33.654651 33.714367 33.777790 33.844505 33.914558
33.987554 34.063484 34.141971 34.222955 34.306077 34.391231 34.478078 34.566469
34.656084 34.746740 34.838136 34.930055 35.022222
35.400000 35.297612 35.195511 35.094016 34.993379 34.893948 34.795933 34.699710
34.605445 34.513537 34.424102 34.337563 34.253981 34.173802 34.097025 34.024119
33.955017 33.890212 33.829563 33.773588 33.722069 33.675550 33.633728 33.597174
33.565501 33.539303 33.518103 33.502525 33.491996 33.487169 33.487374 33.493294
33.504161 33.520686 33.542003 33.568852 33.600270 33.637023 33.678055 33.724161
33.774192 33.828968 33.887257 33.949903 34.015598 34.085208 34.157357 34.232932
34.310502 34.390970 34.472864 34.557101 34.642182 34.729036 34.816149 34.904460
34.992457 35.081084 35.168848 35.256692 35.343155 35.429179 35.513348 35.596593
35.677561 35.757167 35.834126 35.909331 35.981581 36.051736 36.118684 36.183246
36.244407 36.302940 36.357929 36.410090 36.458613 36.504148 36.545991 36.584716
36.619728 36.651519 36.679602 36.704381 36.725475 36.743194 36.757266 36.767899
36.774931 36.778466 36.778451 36.774884 36.767820 36.757154 36.743046 36.725289
36.704153 36.679328 36.651194 36.619346 36.584270 36.545474 36.503552 36.457928
36.409304 36.357031 36.301916 36.243243 36.181925 36.117187 36.050044 35.979672
35.907182 35.831710 35.754456 35.674526 35.593200 35.509560 35.424959 35.338463
35.251484 35.163076 35.074700 34.985408 34.896689 34.807598 34.719643 34.631882
34.545827 34.460544 34.377531 34.295869 34.217025 34.140097 34.066512 33.995382
33.928082 33.863744 33.803676 33.747035 33.695052 33.646909 33.603756 33.564799
33.531099 33.501891 33.478143 33.459119 33.445691 33.437153 33.434280 33.436397
33.444182 33.456990 33.475404 33.498809 33.527694 33.561475 33.600550 33.644362
33.693225 33.746608 33.804744 33.867125 33.933910 34.004615 34.079326 34.157582
34.239403 34.324350 34.412383 34.503084 34.596357 34.691807 34.789288 34.888426
34.989032 35.090753 35.193362 35.296533 35.400000
35.777778 35.664320 35.551202 35.438727 35.327270 35.217090 35.108594 35.001992
34.897722 34.795941 34.697111 34.601333 34.509095 34.420431 34.335857 34.255335
34.179407 34.107957 34.041554 33.980000 33.923890 33.872937 33.827765 33.787990
33.754269 33.726118 33.704223 33.687996 33.678156 33.674008 33.676303 33.684234
33.698587 33.718443 33.744620 33.776090 33.813700 33.856315 33.904811 33.957950
34.016637 34.079533 34.147571 34.219322 34.295741 34.375321 34.459040 34.545318
34.635156 34.726920 34.821624 34.917598 35.015870 35.114744 35.215262 35.315723
35.417173 35.517924 35.619028 35.718823 35.818361 35.916024 36.012858 36.107308
36.200403 36.290664 36.379100 36.464317 36.547295 36.626739 36.703589 36.776654
36.846826 36.913027 36.976089 37.035049 37.090673 37.142115 37.190063 37.233790
37.273897 37.309779 37.341940 37.369897 37.394050 37.414035 37.430145 37.442136
37.450186 37.454173 37.454155 37.450134 37.442049 37.430020 37.413871 37.393843
37.369644 37.341636 37.309418 37.273473 37.233295 37.189489 37.141453 37.089912
37.034177 36.975092 36.911889 36.845533 36.775186 36.701926 36.624859 36.545175
36.461929 36.376416 36.287652 36.197030 36.103537 36.008651 35.911337 35.813148
35.713037 35.612616 35.510831 35.409341 35.307089 35.205762 35.104308 35.004426
34.905071 34.807936 34.711988 34.618897 34.527645 34.439863 34.354549 34.273280
34.195076 34.121446 34.051433 33.986464 33.925609 33.870206 33.819353 33.774290
33.734144 33.700053 33.671176 33.648543 33.631345 33.620506 33.615249 33.616387
33.623178 33.636329 33.655129 33.680180 33.710804 33.747500 33.789623 33.837572
33.890733 33.949413 34.013026 34.081789 34.155146 34.233232 34.315514 34.402053
34.492340 34.586364 34.683643 34.784101 34.887279 34.993042 35.100958 35.210838
35.322274 35.435033 35.548733 35.663098 35.777778
36.155556 36.031136 35.907073 35.783767 35.661529 35.540794 35.421824 35.305089
35.190794 35.079440 34.971170 34.866516 34.765551 34.668837 34.576372 34.488746
34.405875 34.328379 34.256084 34.189641 34.128781 34.074186 34.025483 33.983389
33.947422 33.918332 33.895525 33.879786 33.870403 33.868194 33.872329 33.883661
33.901235 33.925942 33.956701 33.994438 34.037952 34.088199 34.143860 34.205923
34.272954 34.345973 34.423437 34.506394 34.593207 34.684945 34.779889 34.879132
34.980883 35.086254 35.193403 35.303458 35.414541 35.527795 35.641325 35.756284
35.870781 35.985975 36.099999 36.214012 36.326190 36.437690 36.546746 36.654504
36.759276 36.862190 36.961649 37.058754 37.152010 37.242483 37.328792 37.411955
37.490712 37.566022 37.636752 37.703793 37.766143 37.824609 37.878323 37.928001
37.972910 38.013661 38.049657 38.081399 38.108421 38.131108 38.149127 38.162737
38.171740 38.176265 38.176246 38.171683 38.162641 38.148990 38.130928 38.108194
38.081120 38.049322 38.013264 37.972443 37.927457 37.877692 37.823881 37.765305
37.702833 37.635655 37.564771 37.489289 37.410340 37.326964 37.240416 37.149678
37.056128 36.958697 36.858878 36.755567 36.650357 36.542118 36.432535 36.320457
36.207648 36.092946 35.978173 35.862165 35.746787 35.630874 35.516315 35.401953
35.289679 35.178346 35.069830 34.962999 34.859692 34.758795 34.662096 34.568500
34.479725 34.394701 34.315063 34.239765 34.170349 34.105796 34.047543 33.994603
33.948300 33.907681 33.873951 33.846191 33.825488 33.810959 33.803566 33.802464
33.808497 33.820853 33.840258 33.865939 33.898502 33.937212 33.982565 34.033857
34.091480 34.154764 34.223997 34.298543 34.378595 34.463546 34.553502 34.647885
34.746718 34.849451 34.956034 35.065943 35.179059 35.294886 35.413245 35.533666
35.655916 35.779555 35.904299 36.029743 36.155556
36.533333 36.398050 36.263185 36.129106 35.996276 35.865010 35.735810 35.608932
35.484915 35.363950 35.246608 35.133011 35.023762 34.918904 34.819072 34.724222
34.635023 34.551336 34.473863 34.402364 34.337576 34.279147 34.227853 34.183225
34.146075 34.115813 34.093288 34.077784 34.070186 34.069647 34.077092 34.091537
34.113947 34.143201 34.180300 34.223988 34.275304 34.332854 34.397714 34.468360
34.545900 34.628688 34.717860 34.811660 34.911250 35.014773 35.123415 35.235235
35.351440 35.470020 35.592202 35.715926 35.842435 35.969640 36.098798 36.227813
36.357949 36.487127 36.616617 36.744376 36.871671 36.996520 37.120182 37.240751
37.359474 37.474537 37.587164 37.695650 37.801186 37.902188 37.999801 38.092573
38.181592 38.265544 38.345447 38.420130 38.490528 38.555617 38.616237 38.671511
38.722172 38.767491 38.808083 38.843368 38.873833 38.899043 38.919354 38.934475
38.944622 38.949649 38.949628 38.944560 38.934371 38.919205 38.898847 38.873585
38.843064 38.807718 38.767058 38.721663 38.670918 38.615549 38.554823 38.489615
38.419083 38.344251 38.264180 38.180041 38.090812 37.997807 37.899933 37.798642
37.692786 37.583944 37.470925 37.355428 37.236228 37.115134 36.990896 36.865417
36.737433 36.608924 36.478617 36.348551 36.217453 36.087398 35.957118 35.828704
35.700895 35.575778 35.452104 35.331931 35.214029 35.100404 34.989847 34.884298
34.782568 34.686513 34.594969 34.509695 34.429554 34.356192 34.288505 34.228017
34.173659 34.126827 34.086488 34.053905 34.028082 34.010150 33.999152 33.996082
34.000025 34.011842 34.030657 34.057203 34.090642 34.131582 34.179224 34.234056
34.295316 34.363376 34.437514 34.517992 34.604121 34.696065 34.793167 34.895498
35.002431 35.113951 35.229465 35.348877 35.471624 35.597541 35.726094 35.857053
35.989920 36.124405 36.260043 36.396495 36.533333
36.911111 36.765095 36.619512 36.474842 36.331464 36.189905 36.050480 35.913759
35.779990 35.649782 35.523308 35.401213 35.283589 35.171118 35.063799 34.962351
34.866676 34.777528 34.694702 34.618991 34.550073 34.488780 34.434667 34.388607
34.350024 34.319832 34.297317 34.283436 34.277332 34.280004 34.290448 34.309705
34.336622 34.372281 34.415376 34.467030 34.525789 34.592811 34.666498 34.748042
34.835706 34.930715 35.031200 35.138416 35.250378 35.368364 35.490287 35.617450
35.747678 35.882297 36.019067 36.159330 36.300803 36.444844 36.589151 36.735093
36.880373 37.026367 37.170810 37.315079 37.456963 37.597835 37.735561 37.871503
38.003622 38.133262 38.258497 38.380642 38.497897 38.611538 38.719905 38.824218
38.922967 39.017303 39.105873 39.189745 39.267723 39.340781 39.407885 39.469896
39.525942 39.576764 39.621649 39.661204 39.694877 39.723132 39.745575 39.762519
39.773729 39.779362 39.779340 39.773662 39.762406 39.745413 39.722919 39.694609
39.660875 39.621254 39.576295 39.525391 39.469254 39.407140 39.339922 39.266734
39.188611 39.104577 39.015826 38.921287 38.822311 38.717745 38.609097 38.495143
38.377540 38.255010 38.129350 37.999240 37.866604 37.730093 37.591744 37.450189
37.307559 37.162477 37.017149 36.870193 36.723871 36.576802 36.431279 36.285928
36.143047 36.001275 35.862889 35.726545 35.594477 35.465359 35.341363 35.221181
35.106901 34.997242 34.894189 34.796486 34.706004 34.621518 34.544768 34.474565
34.412511 34.357452 34.310847 34.271583 34.240970 34.217936 34.203644 34.197064
34.199211 34.209099 34.227599 34.253767 34.288335 34.330402 34.380564 34.437964
34.503068 34.575058 34.654281 34.739958 34.832321 34.930628 35.035006 35.144748
35.259884 35.379742 35.504261 35.632803 35.765226 35.900927 36.039688 36.180942
36.324405 36.469547 36.616023 36.763344 36.911111
37.288889 37.132257 36.976124 36.820933 36.667234 36.515406 36.366048 36.219470
36.076313 35.936811 35.801647 35.670969 35.545502 35.425298 35.311124 35.202928
35.101517 35.006728 34.919409 34.839276 34.767218 34.702823 34.647023 34.599265
34.560530 34.530116 34.509050 34.496478 34.493472 34.499019 34.514237 34.537951
34.571322 34.613013 34.664224 34.723456 34.791949 34.868040 34.953010 35.045037
35.145437 35.252239 35.366791 35.486985 35.614196 35.746196 35.884383 36.026426
36.173745 36.323925 36.478407 36.634714 36.794305 36.954670 37.117279 37.279617
37.443163 37.605423 37.767882 37.928092 38.087539 38.243847 38.398498 38.549210
38.697450 38.841054 38.981464 39.116649 39.248016 39.373683 39.495004 39.610258
39.720735 39.824881 39.923905 40.016425 40.103555 40.184087 40.259024 40.327333
40.389891 40.445842 40.495921 40.539447 40.577005 40.608084 40.633110 40.651743
40.664242 40.670437 40.670413 40.664170 40.651622 40.632936 40.607855 40.576716
40.539094 40.495496 40.445338 40.389299 40.326642 40.258222 40.183162 40.102491
40.015205 39.922511 39.823291 39.718927 39.608205 39.492679 39.371054 39.245051
39.113310 38.977709 38.836842 38.692732 38.543935 38.392611 38.237289 38.080245
37.919994 37.758908 37.595496 37.432201 37.267532 37.103981 36.940062 36.778287
36.617180 36.459247 36.303025 36.150987 36.001688 35.857540 35.717119 35.582755
35.453047 35.330222 35.212905 35.103202 34.999768 34.904573 34.816305 34.736789
34.664747 34.601850 34.546860 34.501287 34.463937 34.436157 34.416797 34.407043
34.405790 34.414065 34.430809 34.456894 34.491308 34.534771 34.586321 34.646532
34.714486 34.790622 34.874067 34.965132 35.062983 35.167814 35.278831 35.396117
35.518918 35.647213 35.780288 35.918028 36.059757 36.205276 36.353947 36.505494
36.659318 36.815077 36.972213 37.130320 37.288889
37.666667 37.499572 37.332989 37.167489 37.003518 36.841702 36.682415 36.526333
36.373751 36.225391 36.081461 35.942728 35.809303 35.681999 35.560819 35.446619
35.339288 35.239727 35.147697 35.064147 34.988701 34.922356 34.864589 34.816445
34.777249 34.748093 34.728141 34.718533 34.718265 34.728526 34.748135 34.778331
34.817755 34.867692 34.926601 34.995811 35.073605 35.161351 35.257156 35.362426
35.475101 35.596620 35.724766 35.861008 36.002986 36.152195 36.306151 36.466372
36.630272 36.799388 36.971055 37.146828 37.323992 37.504116 37.684463 37.866614
38.047841 38.229733 38.409600 38.589036 38.765416 38.940335 39.111260 39.279777
39.443472 39.603911 39.758821 39.909735 40.054537 40.194716 40.328324 40.456791
40.578348 40.694349 40.803211 40.906193 41.001901 41.091483 41.173735 41.249678
41.318297 41.380470 41.435370 41.483716 41.524870 41.559380 41.586793 41.607480
41.621168 41.628045 41.628019 41.621091 41.607350 41.586607 41.559135 41.524561
41.483337 41.434915 41.379930 41.317663 41.248938 41.172877 41.090492 41.000762
40.904887 40.801718 40.692647 40.576412 40.454592 40.325834 40.191901 40.051361
39.906158 39.754800 39.599399 39.438418 39.274126 39.104954 38.933309 38.757603
38.580362 38.399987 38.219099 38.036097 37.853668 37.670217 37.488466 37.306831
37.128043 36.950527 36.776996 36.605889 36.439868 36.277392 36.121042 35.969301
35.824648 35.685588 35.554479 35.429852 35.313926 35.205263 35.105924 35.014509
34.932915 34.859777 34.796821 34.742726 34.699040 34.664490 34.640444 34.625678
34.621386 34.626391 34.641718 34.666238 34.700810 34.744358 34.797578 34.859445
34.930505 35.009779 35.097671 35.193249 35.296784 35.407388 35.525208 35.649399
35.779994 35.916191 36.057916 36.204411 36.355504 36.510480 36.669080 36.830631
36.994796 37.160948 37.328679 37.497409 37.666667
38.044444 37.867021 37.690184 37.514453 37.340475 37.168697 36.999822 36.834215
36.672634 36.515350 36.363175 36.216280 36.075524 35.940971 35.813528 35.693138
35.580759 35.476203 35.380476 35.293251 35.215584 35.146995 35.088594 35.039738
35.001591 34.973338 34.956195 34.949170 34.953530 34.968097 34.994189 35.030437
35.078210 35.135942 35.205049 35.283772 35.373569 35.472488 35.582026 35.700045
35.828077 35.963807 36.108797 36.260569 36.420713 36.586602 36.759850 36.937708
37.121808 37.309302 37.501840 37.696504 37.894959 38.094246 38.296046 38.497392
38.699976 38.900856 39.101733 39.299725 39.496534 39.689368 39.879924 40.065531
40.247871 40.424416 40.596824 40.762729 40.923753 41.077709 41.226164 41.367122
41.502081 41.629243 41.750015 41.862804 41.968908 42.066939 42.158067 42.241109