# vtk DataFile Version 3.0
Steady-state temperature (Jacobi)
ASCII
DATASET STRUCTURED_POINTS
DIMENSIONS 181 181 1
ORIGIN 0.0 0.0 0.0
SPACING 0.05 0.05 1.0
POINT_DATA 32761
SCALARS Temperature float 1
LOOKUP_TABLE default
32.000000 32.000000 32.000000 32.000000 32.000000 32.000000 32.000000 32.000000
32.000000 32.000000 32.000000 32.000000 32.000000 32.000000 32.000000 32.000000
32.000000 32.000000 32.000000 32.000000 32.000000 32.000000 32.000000 32.000000
32.000000 32.000000 32.000000 32.000000 32.000000 32.000000 32.000000 32.000000
32.000000 32.000000 32.000000 32.000000 32.000000 32.000000 32.000000 32.000000
32.000000 32.000000 32.000000 32.000000 32.000000 32.000000 32.000000 32.000000
32.000000 32.000000 32.000000 32.000000 32.000000 32.000000 32.000000 32.000000
32.000000 32.000000 32.000000 32.000000 32.000000 32.000000 32.000000 32.000000
32.000000 32.000000 32.000000 32.000000 32.000000 32.000000 32.000000 32.000000
32.000000 32.000000 32.000000 32.000000 32.000000 32.000000 32.000000 32.000000
32.000000 32.000000 32.000000 32.000000 32.000000 32.000000 32.000000 32.000000
32.000000 32.000000 32.000000 32.000000 32.000000 32.000000 32.000000 32.000000
32.000000 32.000000 32.000000 32.000000 32.000000 32.000000 32.000000 32.000000
32.000000 32.000000 32.000000 32.000000 32.000000 32.000000 32.000000 32.000000
32.000000 32.000000 32.000000 32.000000 32.000000 32.000000 32.000000 32.000000
32.000000 32.000000 32.000000 32.000000 32.000000 32.000000 32.000000 32.000000
32.000000 32.000000 32.000000 32.000000 32.000000 32.000000 32.000000 32.000000
32.000000 32.000000 32.000000 32.000000 32.000000 32.000000 32.000000 32.000000
32.000000 32.000000 32.000000 32.000000 32.000000 32.000000 32.000000 32.000000
32.000000 32.000000 32.000000 32.000000 32.000000 32.000000 32.000000 32.000000
32.000000 32.000000 32.000000 32.000000 32.000000 32.000000 32.000000 32.000000
32.000000 32.000000 32.000000 32.000000 32.000000 32.000000 32.000000 32.000000
32.000000 32.000000 32.000000 32.000000 32.000000
32.377778 32.405995 32.434218 32.462456 32.490715 32.519002 32.547322 32.575684
32.604091 32.632553 32.661070 32.689653 32.718301 32.747023 32.775818 32.804694
32.833648 32.862687 32.891808 32.921016 32.950305 32.979679 33.009131 33.038664
33.068269 33.097947 33.127686 33.157486 33.187333 33.217226 33.247149 33.277097
33.307053 33.337012 33.366953 33.396869 33.426737 33.456549 33.486281 33.515921
33.545444 33.574837 33.604073 33.633139 33.662005 33.690657 33.719064 33.747212
33.775068 33.802618 33.829831 33.856688 33.883160 33.909230 33.934867 33.960056
33.984765 34.008979 34.032670 34.055822 34.078409 34.100416 34.121818 34.142601
34.162743 34.182233 34.201047 34.219177 34.236604 34.253318 34.269303 34.284552
34.299049 34.312789 34.325759 34.337955 34.349366 34.359988 34.369813 34.378838
34.387055 34.394464 34.401059 34.406837 34.411796 34.415935 34.419250 34.421742
34.423408 34.424248 34.424263 34.423452 34.421816 34.419354 34.416070 34.411963
34.407037 34.401292 34.394734 34.387362 34.379183 34.370199 34.360417 34.349841
34.338478 34.326333 34.313417 34.299734 34.285298 34.270114 34.254197 34.237556
34.220206 34.202157 34.183429 34.164031 34.143985 34.123303 34.102010 34.080116
34.057650 34.034624 34.011066 33.986992 33.962430 33.937397 33.911922 33.886023
33.859729 33.833059 33.806043 33.778698 33.751055 33.723131 33.694957 33.666549
33.637936 33.609135 33.580173 33.551065 33.521839 33.492507 33.463096 33.433615
33.404090 33.374530 33.344958 33.315379 33.285817 33.256274 33.226771 33.197311
33.167909 33.138568 33.109302 33.080111 33.051006 33.021986 32.993061 32.964228
32.935494 32.906855 32.878316 32.849873 32.821527 32.793274 32.765114 32.737041
32.709054 32.681146 32.653314 32.625551 32.597854 32.570213 32.542625 32.515080
32.487574 32.460098 32.432645 32.405208 32.377778
32.755556 32.811994 32.868446 32.924926 32.981449 33.038026 33.094674 33.151400
33.208223 33.265149 33.322193 33.379361 33.436667 33.494114 33.551716 33.609471
33.667392 33.725475 33.783731 33.842150 33.900743 33.959497 34.018419 34.077492
34.136720 34.196082 34.255581 34.315189 34.374906 34.434701 34.494570 34.554477
34.614415 34.674345 34.734253 34.794098 34.853863 34.913501 34.972994 35.032289
35.091366 35.150169 35.208673 35.266822 35.324586 35.381907 35.438755 35.495067
35.550814 35.605932 35.660389 35.714122 35.767098 35.819256 35.870561 35.920954
35.970402 36.018847 36.066257 36.112576 36.157776 36.201803 36.244630 36.286210
36.326516 36.365505 36.403154 36.439423 36.474294 36.507730 36.539715 36.570218
36.599225 36.626710 36.652662 36.677057 36.699888 36.721135 36.740792 36.758843
36.775285 36.790103 36.803297 36.814855 36.824776 36.833054 36.839686 36.844669
36.848003 36.849684 36.849713 36.848091 36.844817 36.839895 36.833324 36.825110
36.815254 36.803764 36.790642 36.775897 36.759534 36.741564 36.721993 36.700837
36.678103 36.653810 36.627966 36.600596 36.571710 36.541336 36.509488 36.476197
36.441480 36.405373 36.367896 36.329090 36.288977 36.247602 36.204990 36.161190
36.116230 36.070164 36.023020 35.974856 35.925703 35.875619 35.824639 35.772823
35.720204 35.666845 35.612780 35.558072 35.502754 35.446888 35.390507 35.333673
35.276416 35.218796 35.160841 35.102609 35.044126 34.985447 34.926594 34.867618
34.808540 34.749407 34.690235 34.631067 34.571916 34.512821 34.453791 34.394861
34.336035 34.277346 34.218793 34.160403 34.102175 34.044129 33.986262 33.928591
33.871107 33.813825 33.756733 33.699842 33.643139 33.586629 33.530298 33.474148
33.418165 33.362345 33.306673 33.251144 33.195741 33.140457 33.085274 33.030183
32.975165 32.920209 32.865299 32.810420 32.755556
33.133333 33.218002 33.302692 33.387425 33.472219 33.557099 33.642080 33.727186
33.812430 33.897837 33.983414 34.069185 34.155157 34.241350 34.327765 34.414423
34.501319 34.588471 34.675871 34.763532 34.851439 34.939605 35.028008 35.116656
35.205521 35.294607 35.383880 35.473339 35.562943 35.652687 35.742521 35.832437
35.922379 36.012331 36.102232 36.192061 36.281750 36.371273 36.460556 36.549568
36.638229 36.726505 36.814310 36.901606 36.988303 37.074359 37.159682 37.244226
37.327898 37.410650 37.492388 37.573061 37.652577 37.730885 37.807893 37.883552
37.957771 38.030504 38.101663 38.171205 38.239045 38.305143 38.369422 38.431844
38.492337 38.550867 38.607370 38.661816 38.714147 38.764337 38.812336 38.858121
38.901650 38.942903 38.981844 39.018459 39.052716 39.084604 39.114098 39.141189
39.165857 39.188096 39.207890 39.225235 39.240120 39.252541 39.262491 39.269969
39.274970 39.277493 39.277537 39.275102 39.270191 39.262804 39.252946 39.240620
39.225834 39.208591 39.188903 39.166775 39.142224 39.115256 39.085892 39.054140
39.020028 38.983566 38.944787 38.903705 38.860359 38.814767 38.766973 38.717000
38.664900 38.610698 38.554454 38.496197 38.435994 38.373878 38.309923 38.244166
38.176685 38.107523 38.036763 37.964451 37.890673 37.815479 37.738959 37.661162
37.582183 37.502071 37.420922 37.338784 37.255755 37.171881 37.087258 37.001932
36.915996 36.829492 36.742511 36.655092 36.567321 36.479234 36.390910 36.302382
36.213724 36.124962 36.036165 35.947355 35.858594 35.769897 35.681320 35.592874
35.504608 35.416527 35.328672 35.241045 35.153680 35.066573 34.979753 34.893210
34.806967 34.721011 34.635359 34.549994 34.464925 34.380135 34.295627 34.211380
34.127394 34.043645 33.960127 33.876816 33.793703 33.710761 33.627977 33.545326
33.462790 33.380344 33.297969 33.215639 33.133333
33.511111 33.624024 33.736966 33.849963 33.963046 34.076239 34.189574 34.303069
34.416757 34.530654 34.644789 34.759175 34.873840 34.988789 35.104051 35.219623
35.335531 35.451765 35.568350 35.685266 35.802534 35.920129 36.038063 36.156305
36.274863 36.393695 36.512803 36.632138 36.751695 36.871415 36.991287 37.111242
37.231264 37.351275 37.471249 37.591101 37.710799 37.830249 37.949412 38.068185
38.186525 38.304321 38.421523 38.538017 38.653745 38.768588 38.882486 38.995315
39.107012 39.217452 39.326568 39.434236 39.540387 39.644898 39.747702 39.848677
39.947758 40.044826 40.139820 40.232627 40.323188 40.411397 40.497201 40.580500
40.661246 40.739349 40.814766 40.887414 40.957258 41.024225 41.088283 41.149369
41.207458 41.262494 41.314458 41.363302 41.409012 41.451549 41.490901 41.527037
41.559949 41.589611 41.616019 41.639153 41.659011 41.675577 41.688852 41.698825
41.705495 41.708860 41.708919 41.705672 41.699120 41.689268 41.676117 41.659678
41.639951 41.616953 41.590687 41.561173 41.528416 41.492444 41.453264 41.410910
41.365392 41.316752 41.265004 41.210197 41.152352 41.091523 41.027738 40.961062
40.891525 40.819202 40.744130 40.666392 40.586031 40.503141 40.417768 40.330014
40.239932 40.147631 40.053170 39.956662 39.858170 39.757815 39.655661 39.551832
39.446395 39.339477 39.231144 39.121524 39.010684 38.898749 38.785785 38.671915
38.557201 38.441764 38.325660 38.209007 38.091854 37.974313 37.856429 37.738306
37.619982 37.501553 37.383051 37.264564 37.146115 37.027785 36.909591 36.791601
36.673828 36.556331 36.439113 36.322227 36.205669 36.089483 35.973658 35.858228
35.743180 35.628538 35.514283 35.400432 35.286961 35.173880 35.061162 34.948809
34.836791 34.725103 34.613714 34.502613 34.391766 34.281158 34.170754 34.060534
33.950464 33.840518 33.730663 33.620872 33.511111
33.888889 34.030064 34.171274 34.312557 34.453944 34.595474 34.737175 34.879088
35.021233 35.163651 35.306358 35.449393 35.592766 35.736512 35.880634 36.025167
36.170102 36.315471 36.461258 36.607488 36.754137 36.901224 37.048714 37.196621
37.344898 37.493553 37.642528 37.791822 37.941368 38.091155 38.241104 38.391198
38.541344 38.691517 38.841615 38.991601 39.141362 39.290855 39.439957 39.588614
39.736694 39.884138 40.030803 40.176624 40.321452 40.465214 40.607757 40.749004
40.888799 41.027058 41.163626 41.298417 41.431276 41.562117 41.690786 41.817199
41.941207 42.062728 42.181617 42.297800 42.411138 42.521560 42.628938 42.733209
42.834252 42.932012 43.026381 43.117307 43.204696 43.288505 43.368649 43.445092
43.517761 43.586628 43.651630 43.712744 43.769919 43.823137 43.872356 43.917563
43.958723 43.995830 44.028855 44.057793 44.082625 44.103347 44.119946 44.132420
44.140761 44.144970 44.145043 44.140982 44.132789 44.120466 44.104021 44.083458
44.058790 44.030021 43.997174 43.960252 43.919286 43.874283 43.825280 43.772289
43.715356 43.654496 43.589764 43.521183 43.448818 43.372697 43.292895 43.209448
43.122443 43.031923 42.937986 42.840682 42.740120 42.636360 42.529520 42.419666
42.306928 42.191378 42.073154 41.952333 41.829063 41.703423 41.575567 41.445578
41.313614 41.179758 41.044170 40.906935 40.768212 40.628083 40.486706 40.344160
40.200600 40.056100 39.910808 39.764792 39.618196 39.471079 39.323577 39.175741
39.027698 38.879490 38.731234 38.582964 38.434785 38.286723 38.138872 37.991247
37.843932 37.696933 37.550323 37.404100 37.258324 37.112986 36.968134 36.823753
36.679881 36.536494 36.393619 36.251230 36.109343 35.967925 35.826984 35.686483
35.546421 35.406758 35.267487 35.128563 34.989972 34.851671 34.713635 34.575823
34.438205 34.300739 34.163391 34.026120 33.888889
34.266667 34.436125 34.605628 34.775215 34.944933 35.114819 35.284919 35.455264
35.625903 35.796859 35.968179 36.139880 36.312007 36.484568 36.657605 36.831115
37.005139 37.179663 37.354721 37.530288 37.706393 37.883000 38.060129 38.237732
38.415821 38.594335 38.773278 38.952573 39.132216 39.312118 39.492262 39.672547
39.852945 40.033340 40.213694 40.393880 40.573847 40.753455 40.932644 41.111261
41.289237 41.466409 41.642697 41.817931 41.992022 42.164792 42.336147 42.505902
42.673959 42.840130 43.004313 43.166319 43.326046 43.483306 43.637996 43.789933
43.939017 44.085070 44.227998 44.367630 44.503877 44.636579 44.765655 44.890956
45.012409 45.129877 45.243297 45.352545 45.457567 45.558254 45.654559 45.746388
45.833704 45.916423 45.994518 46.067919 46.136603 46.200514 46.259636 46.313921
46.363359 46.407914 46.447578 46.482322 46.512144 46.537023 46.556956 46.571932
46.581949 46.587002 46.587089 46.582214 46.572375 46.557580 46.537831 46.513143
46.483517 46.448976 46.409525 46.365193 46.315987 46.261947 46.203084 46.139446
46.071049 45.997955 45.920184 45.837807 45.750856 45.659414 45.563518 45.463266
45.358704 45.249944 45.137041 45.020120 44.899245 44.774556 44.646126 44.514107
44.378579 44.239706 44.097576 43.952364 43.804164 43.653156 43.499440 43.343204
43.184549 43.023666 42.860658 42.695717 42.528944 42.360531 42.190576 42.019267
41.846696 41.673047 41.498406 41.322949 41.146753 40.969985 40.792714 40.615096
40.437190 40.259140 40.080993 39.902883 39.724846 39.547001 39.369372 39.192067
39.015099 38.838561 38.662455 38.486861 38.311773 38.137254 37.963290 37.789933
37.617158 37.445005 37.273442 37.102497 36.932131 36.762359 36.593140 36.424477
36.256323 36.088672 35.921475 35.754717 35.588345 35.422336 35.256637 35.091218
34.926025 34.761022 34.596158 34.431389 34.266667
34.644444 34.842213 35.040032 35.237955 35.436026 35.634301 35.832819 36.031638
36.230789 36.430329 36.630281 36.830701 37.031602 37.233038 37.435010 37.637568
37.840703 38.044458 38.248813 38.453803 38.659395 38.865617 39.072419 39.279824
39.487765 39.696253 39.905209 40.114631 40.324425 40.534577 40.744977 40.955598
41.166315 41.377088 41.587775 41.798326 42.008581 42.218478 42.427844 42.636603
42.844571 43.051660 43.257673 43.462513 43.665974 43.867949 44.068224 44.266686
44.463117 44.657397 44.849307 45.038724 45.225428 45.409297 45.590114 45.767759
45.942019 46.112781 46.279839 46.443086 46.602327 46.757463 46.908313 47.054785
47.196713 47.334017 47.466545 47.594228 47.716930 47.834593 47.947099 48.054398
48.156389 48.253033 48.344243 48.429989 48.510199 48.584852 48.653887 48.717289
48.775011 48.827044 48.873350 48.913923 48.948737 48.977787 49.001056 49.018542
49.030235 49.036134 49.036236 49.030543 49.019058 49.001783 48.978729 48.949900
48.915316 48.874980 48.828922 48.777148 48.719697 48.656580 48.587846 48.513512
48.433639 48.348248 48.257416 48.161172 48.059606 47.952757 47.840730 47.723573
47.601408 47.474294 47.342369 47.205703 47.064450 46.918691 46.768596 46.614255
46.455853 46.293491 46.127365 45.957583 45.784354 45.607792 45.428113 45.245437
45.059984 44.871877 44.681340 44.488493 44.293561 44.096664 43.898023 43.697750
43.496065 43.293073 43.088983 42.883893 42.678003 42.471400 42.264272 42.056696
41.848846 41.640786 41.432677 41.224568 41.016607 40.808830 40.601367 40.394243
40.187572 39.981365 39.775721 39.570639 39.366200 39.162394 38.959286 38.756855
38.555151 38.354144 38.153870 37.954289 37.755424 37.557230 37.359715 37.162828
36.966566 36.770873 36.575736 36.381095 36.186926 35.993169 35.799790 35.606729
35.413944 35.221374 35.028973 34.836680 34.644444
35.022222 35.248330 35.474498 35.700781 35.927242 36.153931 36.380911 36.608225
36.835939 37.064083 37.292725 37.521885 37.751626 37.981958 38.212940 38.444569
38.676899 38.909914 39.143660 39.378105 39.613288 39.849162 40.085755 40.323003
40.560925 40.799437 41.038546 41.278153 41.518250 41.758718 41.999537 42.240571
42.481782 42.723017 42.964224 43.205231 43.445973 43.686260 43.926011 44.165022
44.403199 44.640321 44.876283 45.110852 45.343910 45.575217 45.804645 46.031944
46.256981 46.479501 46.699368 46.916325 47.130233 47.340838 47.548002 47.751476
47.951124 48.146708 48.338097 48.525063 48.707486 48.885150 49.057945 49.225672
49.388232 49.545443 49.697219 49.843397 49.983902 50.118591 50.247403 50.370212
50.486969 50.597566 50.701967 50.800080 50.891878 50.977286 51.056284 51.128813
51.194858 51.254374 51.307351 51.353755 51.393581 51.426804 51.453422 51.473418
51.486793 51.493539 51.493656 51.487145 51.474007 51.454251 51.427880 51.394910
51.355345 51.309212 51.256516 51.197297 51.131561 51.059359 50.980704 50.895660
50.804246 50.706540 50.602570 50.492430 50.376158 50.253863 50.125597 49.991487
49.851595 49.706068 49.554980 49.398498 49.236709 49.069798 48.897864 48.721109
48.539645 48.353690 48.163365 47.968902 47.770432 47.568196 47.362332 47.153091
46.940612 46.725153 46.506853 46.285971 46.062647 45.837137 45.609576 45.380216
45.149185 44.916728 44.682964 44.448127 44.212324 43.975779 43.738585 43.500951
43.262957 43.024797 42.786535 42.548347 42.310283 42.072503 41.835039 41.598033
41.361505 41.125575 40.890249 40.655631 40.421713 40.188579 39.956208 39.724669
39.493930 39.264039 39.034957 38.806717 38.579268 38.352629 38.126742 37.901612
37.677175 37.453423 37.230287 37.007746 36.785730 36.564207 36.343105 36.122383
35.901968 35.681810 35.461840 35.242000 35.022222
35.400000 35.654481 35.909028 36.163711 36.418589 36.673736 36.929203 37.185065
37.441363 37.698174 37.955527 38.213497 38.472101 38.731409 38.991427 39.252217
39.513772 39.776147 40.039317 40.303330 40.568144 40.833795 41.100223 41.367455
41.635408 41.904097 42.173421 42.443378 42.713848 42.984813 43.256132 43.527771
43.799567 44.071471 44.343299 44.614984 44.886323 45.157233 45.427490 45.696996
45.965510 46.232919 46.498966 46.763524 47.026324 47.287228 47.545956 47.802359
48.056152 48.307180 48.555154 48.799915 49.041175 49.278773 49.512426 49.741977
49.967149 50.187790 50.403637 50.614545 50.820264 51.020662 51.215505 51.404675
51.587956 51.765243 51.936342 52.101164 52.259535 52.411380 52.556548 52.694978
52.826539 52.951184 53.068804 53.179361 53.282766 53.378992 53.467966 53.549669
53.624045 53.691081 53.750734 53.802996 53.847836 53.885250 53.915217 53.937735
53.952791 53.960387 53.960519 53.953186 53.938396 53.916148 53.886458 53.849328
53.804782 53.752823 53.693488 53.626784 53.552757 53.471419 53.382832 53.287014
53.184041 53.073941 52.956807 52.832675 52.701659 52.563808 52.419254 52.268059
52.110378 51.946287 51.775962 51.599494 51.417081 51.228828 51.034954 50.835578
50.630938 50.421166 50.206518 49.987136 49.763290 49.535132 49.302941 49.066876
48.827225 48.584148 48.337937 48.088752 47.836886 47.582495 47.325867 47.067153
46.806635 46.544452 46.280877 46.016039 45.750196 45.483463 45.216084 44.948158
44.679912 44.411428 44.142915 43.874437 43.606184 43.338203 43.070662 42.803591
42.537137 42.271316 42.006251 41.741943 41.478495 41.215891 40.954217 40.693442
40.433631 40.174743 39.916823 39.659820 39.403762 39.148587 38.894306 38.640852
38.388221 38.136338 37.885184 37.634682 37.384800 37.135458 36.886613 36.638184
36.390117 36.142332 35.894768 35.647347 35.400000
35.777778 36.060667 36.343633 36.626747 36.910088 37.193721 37.477728 37.762163
38.047110 38.332610 38.618748 38.905552 39.193102 39.481413 39.770560 40.060541
40.351426 40.643195 40.935909 41.229529 41.524106 41.819581 42.115992 42.413260
42.711409 43.010338 43.310054 43.610435 43.911472 44.213018 44.515045 44.817386
45.119993 45.422673 45.725363 46.027846 46.330037 46.631700 46.932732 47.232874
47.532007 47.829853 48.126276 48.420982 48.713821 49.004487 49.292816 49.578493
49.861345 50.141052 50.417434 50.690169 50.959075 51.223832 51.484261 51.740047
51.991016 52.236865 52.477427 52.712414 52.941671 53.164927 53.382040 53.592761
53.796963 53.994420 54.185022 54.368565 54.544959 54.714022 54.875681 55.029780
55.176259 55.314988 55.445921 55.568947 55.684036 55.791096 55.890107 55.980995
56.063748 56.138310 56.204673 56.262795 56.312674 56.354279 56.387610 56.412649
56.429395 56.437841 56.437986 56.429833 56.413382 56.388643 56.355619 56.314328
56.264775 56.206991 56.140979 56.066786 55.984419 55.893938 55.795356 55.688749
55.574139 55.451620 55.321226 55.183068 55.037193 54.883737 54.722759 54.554418
54.378791 54.196059 54.006317 53.809771 53.606531 53.396829 53.180792 52.958672
52.730613 52.496890 52.257657 52.013209 51.763712 51.509473 51.250668 50.987615
50.720495 50.449632 50.175208 49.897551 49.616838 49.333397 49.047401 48.759168
48.468863 48.176797 47.883121 47.588131 47.291966 46.994905 46.697070 46.398724
46.099968 45.801044 45.502036 45.203165 44.904493 44.606219 44.308387 44.011170
43.714595 43.418812 43.123827 42.829769 42.536626 42.244503 41.953374 41.663321
41.374303 41.086381 40.799503 40.513707 40.228931 39.945194 39.662424 39.380625
39.099714 38.819680 38.540435 38.261952 37.984141 37.706960 37.430317 37.154159
36.878393 36.602957 36.327760 36.052729 35.777778
36.155556 36.466893 36.778313 37.089904 37.401740 37.713913 38.026488 38.339559
38.653180 38.967444 39.282392 39.598115 39.914638 40.232048 40.550354 40.869636
41.189885 41.511172 41.833468 42.156834 42.481220 42.806673 43.133121 43.460597
43.789005 44.118362 44.448546 44.779557 45.111247 45.443597 45.776434 46.109717
46.443248 46.776964 47.110641 47.444197 47.777381 48.110089 48.442047 48.773132
49.103047 49.431648 49.758621 50.083803 50.406863 50.727626 51.045745 51.361034
51.673138 51.981860 52.286842 52.587883 52.884626 53.176867 53.464254 53.746589
54.023530 54.294884 54.560323 54.819669 55.072610 55.318981 55.558495 55.791002
56.016239 56.234076 56.444275 56.646726 56.841218 57.027661 57.205871 57.375776
57.537219 57.690145 57.834423 57.970013 58.096806 58.214775 58.323835 58.423966
58.515103 58.597234 58.670309 58.734323 58.789240 58.835058 58.871752 58.899324
58.917759 58.927058 58.927218 58.918240 58.900129 58.872886 58.836528 58.791056
58.736497 58.672853 58.600165 58.518437 58.427726 58.328040 58.219452 58.101980
57.975714 57.840682 57.696995 57.544696 57.383918 57.214719 57.037258 56.851609
56.657959 56.456400 56.247147 56.030311 55.806133 55.574745 55.336415 55.091292
54.839669 54.581712 54.317736 54.047921 53.772601 53.491966 53.206366 52.915998
52.621221 52.322237 52.019410 51.712940 51.403192 51.090362 50.774809 50.456721
50.136450 49.814170 49.490220 49.164759 48.838109 48.510414 48.181973 47.852911
47.523508 47.193866 46.864240 46.534713 46.205513 45.876702 45.548483 45.220894
44.894114 44.568160 44.243184 43.919184 43.596286 43.274469 42.953835 42.634346
42.316080 41.998983 41.683111 41.368397 41.054873 40.742463 40.431179 40.120934
39.811723 39.503451 39.196095 38.889556 38.583795 38.278710 37.974247 37.670305
37.366817 37.063682 36.760823 36.458143 36.155556
36.533333 36.873159 37.213079 37.553181 37.893565 38.234308 38.575515 38.917250
39.259619 39.602673 39.946516 40.291185 40.636779 40.983318 41.330894 41.679510
42.029249 42.380092 42.732113 43.085270 43.439624 43.795110 44.151772 44.509520
44.868383 45.228244 45.589110 45.950839 46.313418 46.676674 47.040575 47.404917
47.769646 48.134529 48.499488 48.864264 49.228752 49.592667 49.955881 50.318084
50.679125 51.038670 51.396549 51.752406 52.106054 52.457121 52.805403 53.150516
53.492244 53.830197 54.164152 54.493713 54.818657 55.138590 55.453290 55.762374
56.065624 56.362671 56.653307 56.937183 57.214105 57.483747 57.745933 58.000361
58.246878 58.485209 58.715223 58.936675 59.149456 59.353353 59.548276 59.734043
59.910586 60.077750 60.235485 60.383664 60.522252 60.651146 60.770325 60.879707
60.979281 61.068984 61.148811 61.218716 61.278699 61.328727 61.368802 61.398905
61.419037 61.429189 61.429363 61.419560 61.399780 61.370036 61.330327 61.280675
61.221081 61.151580 61.072173 60.982911 60.883799 60.774904 60.656237 60.527885
60.389871 60.242299 60.085208 59.918728 59.742910 59.557912 59.363805 59.160774
58.948911 58.728431 58.499448 58.262209 58.016846 57.763639 57.502743 57.234464
56.958978 56.676617 56.387576 56.092209 55.790724 55.483497 55.170745 54.852856
54.530055 54.202739 53.871133 53.535639 53.196478 52.854048 52.508564 52.160417
51.809810 51.457121 51.102537 50.746419 50.388938 50.030434 49.671056 49.311121
48.950755 48.590251 48.229710 47.869398 47.509393 47.149931 46.791067 46.433007
46.075784 45.719575 45.364389 45.010376 44.657524 44.305954 43.955634 43.606661
43.258983 42.912671 42.567659 42.223992 41.881592 41.540481 41.200568 40.861855
40.524243 40.187712 39.852157 39.517542 39.183756 38.850745 38.518399 38.186649
37.855384 37.524524 37.193958 36.863596 36.533333
36.911111 37.279469 37.647927 38.016592 38.385557 38.754933 39.124801 39.495273
39.866417 40.238346 40.611111 40.984823 41.359517 41.735296 42.112175 42.490252
42.869518 43.250062 43.631852 44.014963 44.399338 44.785037 45.171976 45.560198
45.949590 46.340176 46.731814 47.124504 47.518074 47.912503 48.307586 48.703275
49.099337 49.495697 49.892091 50.288416 50.684378 51.079850 51.474506 51.868195
52.260563 52.651436 53.040435 53.427364 53.811825 54.193601 54.572278 54.947625
55.319217 55.686810 56.049975 56.408462 56.761842 57.109863 57.452103 57.788316
58.118091 58.441191 58.757224 59.065969 59.367054 59.660277 59.945295 60.221926
60.489860 60.748937 60.998879 61.239554 61.470715 61.692254 61.903961 62.105750
62.297443 62.478977 62.650203 62.811078 62.961482 63.101385 63.230694 63.349392
63.457405 63.554728 63.641305 63.717135 63.782180 63.836442 63.879894 63.912541
63.934367 63.945376 63.945564 63.934932 63.913487 63.881227 63.838170 63.784315
63.719691 63.644297 63.558175 63.461328 63.353814 63.235641 63.106888 62.967570
62.817788 62.657569 62.487040 62.306245 62.115337 61.914380 61.703557 61.482954
61.252787 61.013165 60.764339 60.506443 60.239760 59.964450 59.680829 59.389080
59.089552 58.782447 58.468143 58.146860 57.818999 57.484795 57.144666 56.798858
56.447801 56.091745 55.731126 55.366194 54.997385 54.624942 54.249298 53.870683
53.489518 53.106019 52.720590 52.333429 51.944919 51.555235 51.164737 50.773575
50.382081 49.990380 49.598776 49.207366 48.816424 48.426020 48.036396 47.647596
47.259831 46.873119 46.487640 46.103388 45.720511 45.338983 44.958920 44.580276
44.203140 43.827446 43.453256 43.080489 42.709181 42.339238 41.970670 41.603374
41.237338 40.872448 40.508674 40.145896 39.784063 39.423054 39.062802 38.703182
38.344114 37.985475 37.627172 37.269085 36.911111
37.288889 37.685821 38.082867 38.480132 38.877738 39.275778 39.674376 40.073613
40.473614 40.874445 41.276229 41.679013 42.082916 42.487967 42.894275 43.301848
43.710787 44.121073 44.532795 44.945909 45.360489 45.776461 46.193883 46.612650
47.032800 47.454198 47.876857 48.300610 48.725447 49.151166 49.577730 50.004904
50.432622 50.860615 51.288788 51.716839 52.144644 52.571866 52.998354 53.423741
53.847845 54.270273 54.690818 55.109060 55.524771 55.937509 56.347026 56.752868
57.154770 57.552268 57.945089 58.332763 58.715016 59.091381 59.461585 59.825172
60.181877 60.531261 60.873072 61.206894 61.532495 61.849487 62.157660 62.456658
62.746297 63.026258 63.296383 63.556390 63.806151 64.045420 64.274096 64.491971
64.698968 64.894915 65.079758 65.253356 65.415673 65.566599 65.706114 65.834131
65.950643 66.055583 66.148951 66.230702 66.300837 66.359326 66.406173 66.441359
66.464888 66.476753 66.476955 66.465495 66.442374 66.407604 66.361182 66.303130
66.233445 66.152164 66.059284 65.954855 65.838880 65.711429 65.572509 65.422214
65.260562 65.087672 64.903578 64.708426 64.502272 64.285293 64.057566 63.819305
63.570613 63.311740 63.042815 62.764126 62.475832 62.178257 61.871588 61.556184
61.232257 60.900201 60.560249 60.212824 59.858178 59.496755 59.128823 58.754843
58.375089 57.990033 57.599952 57.205322 56.806414 56.403702 55.997448 55.588116
55.175952 54.761406 54.344704 53.926275 53.506323 53.085252 52.663239 52.240660
51.817665 51.394597 50.971579 50.548920 50.126713 49.705235 49.284548 48.864894
48.446308 48.028996 47.612968 47.198396 46.785263 46.373709 45.963694 45.555325
45.148542 44.743423 44.339887 43.937985 43.537621 43.138816 42.741463 42.345559
41.950986 41.557716 41.165624 40.774662 40.384700 39.995670 39.607440 39.219927
38.832996 38.446551 38.060461 37.674615 37.288889
37.666667 38.092220 38.517893 38.943815 39.370094 39.796864 40.224222 40.652304
41.081190 41.511015 41.941845 42.373808 42.806951 43.241397 43.677168 44.114380
44.553030 44.993221 45.434922 45.878223 46.323065 46.769517 47.217490 47.667033
48.118023 48.570487 49.024268 49.479365 49.935585 50.392902 50.851084 51.310075
51.769606 52.229591 52.689724 53.149885 53.609733 54.069115 54.527655 54.985171
55.441251 55.895685 56.348033 56.798055 57.245286 57.689465 58.130105 58.566926
58.999427 59.427314 59.850080 60.267422 60.678834 61.084011 61.482455 61.873867
62.257763 62.633858 63.001688 63.360988 63.711323 64.052450 64.383968 64.705662
65.017170 65.318306 65.608747 65.888341 66.156806 66.414020 66.659744 66.893884
67.116241 67.326747 67.525240 67.711676 67.885926 68.047965 68.197691 68.335095
68.460101 68.572707 68.672860 68.760564 68.835782 68.898520 68.948754 68.986492
69.011720 69.024444 69.024659 69.012368 68.987577 68.950282 68.900501 68.838229
68.763494 68.676290 68.576660 68.464599 68.340168 68.203367 68.054278 67.892913
67.719377 67.533696 67.336004 67.126348 66.904894 66.671712 66.427005 66.170869
65.903548 65.625167 65.336011 65.036236 64.726170 64.405999 64.076091 63.736664
63.388123 63.030714 62.664876 62.290878 61.909188 61.520093 61.124084 60.721460
60.312726 59.898188 59.478358 59.053541 58.624250 58.190780 57.753639 57.313106
56.869677 56.423612 55.975384 55.525232 55.073603 54.620708 54.166965 53.712555
53.257863 52.803039 52.348432 51.894160 51.440536 50.987645 50.535763 50.084944
49.635424 49.187228 48.740557 48.295406 47.851938 47.410124 46.970092 46.531788
46.095307 45.660574 45.227652 44.796448 44.366994 43.939182 43.513018 43.088379
42.665245 42.243484 41.823054 41.403814 40.985701 40.568571 40.152342 39.736867
39.322048 38.907741 38.493833 38.080183 37.666667
38.044444 38.498662 38.953014 39.407627 39.862643 40.318174 40.774367 41.231320
41.689179 42.148026 42.608004 43.069175 43.531678 43.995550 44.460923 44.927810
45.396330 45.866469 46.338331 46.811873 47.287180 47.764178 48.242931 48.723330
49.205417 49.689044 50.174229 50.660785 51.148700 51.637750 52.127890 52.618856
53.110570 53.602728 54.095218 54.587693 55.080009 55.571778 56.062822 56.552716
57.041248 57.527958 58.012602 58.494693 58.973955 59.449877 59.922160 60.390272
60.853897 61.312491 61.765725 62.213051 62.654135 63.088433 63.515615 63.935147
64.346710 64.749791 65.144087 65.529116 65.904597 66.270082 66.625320 66.969902
67.303611 67.626081 67.937130 68.236437 68.523855 68.799111 69.062090 69.312563
69.550447 69.775556 69.987835 70.187133 70.373419 70.546577 70.706594 70.853381