# vtk DataFile Version 3.0
Steady-state temperature (Jacobi)
ASCII
DATASET STRUCTURED_POINTS
DIMENSIONS 181 181 1
ORIGIN 0.0 0.0 0.0
SPACING 0.05 0.05 1.0
POINT_DATA 32761
SCALARS Temperature float 1
LOOKUP_TABLE default
32.000000 32.000000 32.000000 32.000000 32.000000 32.000000 32.000000 32.000000
32.000000 32.000000 32.000000 32.000000 32.000000 32.000000 32.000000 32.000000
32.000000 32.000000 32.000000 32.000000 32.000000 32.000000 32.000000 32.000000
32.000000 32.000000 32.000000 32.000000 32.000000 32.000000 32.000000 32.000000
32.000000 32.000000 32.000000 32.000000 32.000000 32.000000 32.000000 32.000000
32.000000 32.000000 32.000000 32.000000 32.000000 32.000000 32.000000 32.000000
32.000000 32.000000 32.000000 32.000000 32.000000 32.000000 32.000000 32.000000
32.000000 32.000000 32.000000 32.000000 32.000000 32.000000 32.000000 32.000000
32.000000 32.000000 32.000000 32.000000 32.000000 32.000000 32.000000 32.000000
32.000000 32.000000 32.000000 32.000000 32.000000 32.000000 32.000000 32.000000
32.000000 32.000000 32.000000 32.000000 32.000000 32.000000 32.000000 32.000000
32.000000 32.000000 32.000000 32.000000 32.000000 32.000000 32.000000 32.000000
32.000000 32.000000 32.000000 32.000000 32.000000 32.000000 32.000000 32.000000
32.000000 32.000000 32.000000 32.000000 32.000000 32.000000 32.000000 32.000000
32.000000 32.000000 32.000000 32.000000 32.000000 32.000000 32.000000 32.000000
32.000000 32.000000 32.000000 32.000000 32.000000 32.000000 32.000000 32.000000
32.000000 32.000000 32.000000 32.000000 32.000000 32.000000 32.000000 32.000000
32.000000 32.000000 32.000000 32.000000 32.000000 32.000000 32.000000 32.000000
32.000000 32.000000 32.000000 32.000000 32.000000 32.000000 32.000000 32.000000
32.000000 32.000000 32.000000 32.000000 32.000000 32.000000 32.000000 32.000000
32.000000 32.000000 32.000000 32.000000 32.000000 32.000000 32.000000 32.000000
32.000000 32.000000 32.000000 32.000000 32.000000 32.000000 32.000000 32.000000
32.000000 32.000000 32.000000 32.000000 32.000000
32.377778 32.383981 32.390213 32.396506 32.402883 32.409383 32.416022 32.422843
32.429856 32.437108 32.444603 32.452390 32.460468 32.468888 32.477643 32.486785
32.496300 32.506242 32.516592 32.527404 32.538650 32.550387 32.562579 32.575284
32.588457 32.602157 32.616333 32.631042 32.646225 32.661940 32.678121 32.694822
32.711973 32.729627 32.747705 32.766260 32.785206 32.804594 32.824333 32.844471
32.864914 32.885706 32.906748 32.928084 32.949611 32.971369 32.993252 33.015301
33.037407 33.059608 33.081794 33.104002 33.126122 33.148189 33.170094 33.191872
33.213414 33.234754 33.255788 33.276547 33.296932 33.316972 33.336572 33.355762
33.374451 33.392669 33.410331 33.427465 33.443992 33.459941 33.475238 33.489910
33.503892 33.517209 33.529803 33.541696 33.552838 33.563250 33.572887 33.581769
33.589858 33.597171 33.603678 33.609392 33.614289 33.618380 33.621648 33.624101
33.625728 33.626532 33.626511 33.625664 33.623995 33.621499 33.618187 33.614052
33.609110 33.603351 33.596798 33.589437 33.581300 33.572368 33.562680 33.552215
33.541019 33.529070 33.516420 33.503044 33.489001 33.474266 33.458904 33.442890
33.426294 33.409090 33.391356 33.373064 33.354299 33.335031 33.315352 33.295231
33.274764 33.253921 33.232801 33.211375 33.189745 33.167879 33.145885 33.123729
33.101520 33.079223 33.056948 33.034660 33.012468 32.990334 32.968367 32.946528
32.924924 32.903513 32.882400 32.861541 32.841037 32.820842 32.801053 32.781622
32.762639 32.744056 32.725958 32.708293 32.691142 32.674450 32.658291 32.642610
32.627474 32.612826 32.598726 32.585116 32.572050 32.559470 32.547421 32.535845
32.524780 32.514169 32.504042 32.494344 32.485097 32.476245 32.467807 32.459727
32.452015 32.444620 32.437545 32.430739 32.424201 32.417883 32.411776 32.405837
32.400051 32.394377 32.388796 32.383271 32.377778
32.755556 32.767984 32.780473 32.793076 32.805863 32.818875 32.832190 32.845840
32.859909 32.874417 32.889455 32.905030 32.921240 32.938077 32.955646 32.973924
32.993020 33.012898 33.033668 33.055282 33.077852 33.101314 33.125782 33.151177
33.177614 33.204999 33.233446 33.262847 33.293316 33.324728 33.357196 33.390583
33.424996 33.460286 33.496559 33.533650 33.571663 33.610421 33.650023 33.690283
33.731295 33.772863 33.815076 33.857732 33.900915 33.944416 33.988315 34.032397
34.076740 34.121126 34.165628 34.210029 34.254397 34.298515 34.342451 34.385989
34.429196 34.471860 34.514044 34.555546 34.596426 34.636489 34.675795 34.714157
34.751635 34.788053 34.823469 34.857719 34.890858 34.922736 34.953408 34.982734
35.010768 35.037385 35.062633 35.086403 35.108740 35.129549 35.148869 35.166619
35.182836 35.197450 35.210494 35.221912 35.231729 35.239904 35.246456 35.251357
35.254618 35.256225 35.256183 35.254491 35.251144 35.246157 35.239519 35.231255
35.221349 35.209840 35.196704 35.181995 35.165681 35.147831 35.128409 35.107496
35.085051 35.061169 35.035806 35.009072 34.980917 34.951465 34.920665 34.888654
34.855378 34.820988 34.785428 34.748862 34.711232 34.672715 34.633250 34.593025
34.551980 34.510311 34.467955 34.425118 34.381737 34.338022 34.293909 34.249612
34.205066 34.160488 34.115808 34.071247 34.026731 33.982478 33.938414 33.894752
33.851413 33.808608 33.766253 33.724552 33.683417 33.643044 33.603342 33.564496
33.526411 33.489263 33.452950 33.417639 33.383224 33.349858 33.317433 33.286089
33.255715 33.226436 33.198140 33.170938 33.144715 33.119570 33.095387 33.072249
33.050040 33.028830 33.008504 32.989117 32.970556 32.952861 32.935923 32.919768
32.904290 32.889502 32.875301 32.861689 32.848569 32.835928 32.823676 32.811789
32.800183 32.788822 32.777632 32.766565 32.755556
33.133333 33.152034 33.170820 33.189790 33.209015 33.228607 33.248620 33.269177
33.290315 33.312169 33.334755 33.358220 33.382560 33.407929 33.434303 33.461843
33.490506 33.520456 33.551630 33.584195 33.618066 33.653414 33.690132 33.728391
33.768062 33.809317 33.852005 33.896295 33.942015 33.989333 34.038054 34.088343
34.139985 34.193139 34.247571 34.303436 34.360480 34.418853 34.478284 34.538917
34.600464 34.663064 34.726416 34.790651 34.855460 34.920964 34.986847 35.053225
35.119775 35.186607 35.253395 35.320245 35.386831 35.453254 35.519189 35.584735
35.649574 35.713800 35.777103 35.839576 35.900918 35.961221 36.020197 36.077937
36.134168 36.188977 36.242110 36.293652 36.343367 36.391337 36.437346 36.481474
36.523523 36.563570 36.601439 36.637201 36.670702 36.702005 36.730979 36.757682
36.782000 36.803984 36.823543 36.840718 36.855438 36.867736 36.877559 36.884931
36.889821 36.892239 36.892175 36.889630 36.884612 36.877112 36.867158 36.854729
36.839875 36.822563 36.802866 36.780739 36.756276 36.729424 36.700297 36.668836
36.635174 36.599245 36.561204 36.520980 36.478749 36.434434 36.388232 36.340062
36.290143 36.238390 36.185041 36.130010 36.073552 36.015579 35.956365 35.895819
35.834229 35.771505 35.707946 35.643461 35.578360 35.512549 35.446347 35.379657
35.312804 35.245687 35.178633 35.111538 35.044729 34.978096 34.911965 34.846218
34.781176 34.716717 34.653153 34.590354 34.528622 34.467821 34.408239 34.349736
34.292583 34.236632 34.182142 34.128955 34.077313 34.027055 33.978400 33.931184
33.885607 33.841499 33.799040 33.758059 33.718712 33.680826 33.644539 33.609675
33.576349 33.544389 33.513886 33.484671 33.456814 33.430148 33.404723 33.380377
33.357139 33.334853 33.313529 33.293017 33.273308 33.254262 33.235851 33.217944
33.200497 33.183389 33.166559 33.149900 33.133333
33.511111 33.536148 33.561309 33.586698 33.612455 33.638664 33.665484 33.692973
33.721307 33.750519 33.780798 33.812154 33.844786 33.878678 33.914038 33.950823
33.989250 34.029248 34.071040 34.114525 34.159930 34.207128 34.256346 34.307428
34.360602 34.415682 34.472895 34.532027 34.593301 34.656474 34.721768 34.788908
34.858111 34.929077 35.002017 35.076603 35.153040 35.230976 35.310607 35.391561
35.474025 35.557607 35.642485 35.728252 35.815076 35.902538 35.990798 36.079426
36.168574 36.257808 36.347271 36.436526 36.525712 36.614394 36.702703 36.790211
36.877045 36.962786 37.047557 37.130950 37.213089 37.293581 37.372545 37.449609
37.524889 37.598035 37.669162 37.737941 37.804485 37.868492 37.930070 37.988944
38.045217 38.098641 38.149315 38.197019 38.241843 38.283596 38.322361 38.357973
38.390507 38.419825 38.445990 38.468893 38.488584 38.504982 38.518123 38.527953
38.534494 38.537718 38.537633 38.534239 38.527528 38.517527 38.504213 38.487639
38.467770 38.444685 38.418335 38.388828 38.356101 38.320289 38.281321 38.239358
38.194318 38.146392 38.095490 38.041830 37.985314 37.926190 37.864355 37.800083
37.733266 37.664206 37.592791 37.519350 37.443766 37.366392 37.287111 37.206295
37.123827 37.040097 36.954985 36.868899 36.781715 36.693855 36.605190 36.516153
36.426610 36.336999 36.247182 36.157598 36.068104 35.979137 35.890545 35.802761
35.715625 35.629561 35.544400 35.460553 35.377843 35.296665 35.216833 35.138724
35.062142 34.987444 34.914425 34.843419 34.774214 34.707117 34.641912 34.578877
34.517792 34.458908 34.401998 34.347287 34.294544 34.243965 34.195319 34.148772
34.104093 34.061419 34.020521 33.981508 33.944155 33.908541 33.874447 33.841925
33.810762 33.780985 33.752389 33.724973 33.698545 33.673079 33.648395 33.624442
33.601054 33.578160 33.555607 33.533302 33.511111
33.888889 33.920358 33.951970 33.983891 34.016238 34.049201 34.082867 34.117447
34.152999 34.189751 34.227732 34.267183 34.308101 34.350743 34.395071 34.441352
34.489515 34.539836 34.592207 34.646911 34.703805 34.763175 34.824841 34.889091
34.955710 35.024984 35.096660 35.171025 35.247788 35.327230 35.409028 35.493453
35.580150 35.669382 35.760760 35.854540 35.950300 36.048287 36.148050 36.249827
36.353140 36.458216 36.564555 36.672372 36.781151 36.891093 37.001669 37.113070
37.224757 37.336913 37.448991 37.561167 37.672894 37.784339 37.894962 38.004923
38.113691 38.221421 38.327596 38.432367 38.535235 38.636349 38.735231 38.832028
38.926287 39.018151 39.107199 39.193568 39.276868 39.357234 39.434307 39.508219
39.578643 39.645706 39.709115 39.768990 39.825073 39.877473 39.925969 39.970659
40.011356 40.048143 40.080871 40.109608 40.134236 40.154809 40.171244 40.183577
40.191757 40.195803 40.195697 40.191440 40.183047 40.170500 40.153849 40.133056
40.108206 40.079242 40.046284 40.009260 39.968321 39.923384 39.874633 39.821971
39.765618 39.705467 39.641771 39.574415 39.503687 39.429463 39.352068 39.271371
39.187730 39.101010 39.011603 38.919369 38.824731 38.727547 38.628269 38.526750
38.423470 38.318279 38.211678 38.103516 37.994312 37.883910 37.772844 37.660953
37.548780 37.436160 37.323640 37.211047 37.098928 36.987102 36.876112 36.765767
36.656601 36.548412 36.441720 36.336313 36.232694 36.130637 36.030624 35.932421
35.836482 35.742561 35.651087 35.561804 35.475109 35.390737 35.309053 35.229784
35.153261 35.079205 35.007913 34.939099 34.873025 34.809402 34.748458 34.689901
34.633921 34.580232 34.528984 34.479895 34.433082 34.388266 34.345528 34.304599
34.265527 34.228050 34.192183 34.157679 34.124519 34.092471 34.061485 34.031345
34.001974 33.973172 33.944834 33.916784 33.888889
34.266667 34.304673 34.342866 34.381402 34.420496 34.460272 34.500969 34.542678
34.585660 34.629971 34.675892 34.723440 34.772914 34.824291 34.877885 34.933633
34.991860 35.052460 35.115770 35.181639 35.250409 35.321887 35.396419 35.473767
35.554277 35.637669 35.724284 35.813801 35.906556 36.002183 36.101014 36.202640
36.307384 36.414797 36.525190 36.638078 36.753760 36.871714 36.992226 37.114743
37.239538 37.366027 37.494470 37.624259 37.755642 37.887988 38.021534 38.155635
38.290514 38.425518 38.560859 38.695881 38.830786 38.964922 39.098481 39.230820
39.362125 39.491767 39.619927 39.745995 39.870148 39.991800 40.111126 40.227568
40.341298 40.451792 40.559217 40.663086 40.763562 40.860196 40.953147 41.042006
41.126926 41.207538 41.283988 41.355948 41.423556 41.486525 41.544979 41.598676
41.647723 41.691921 41.731361 41.765882 41.795559 41.820273 41.840076 41.854890
41.864746 41.869606 41.869479 41.864366 41.854255 41.839185 41.819122 41.794146
41.764203 41.729410 41.689693 41.645213 41.595875 41.541882 41.483122 41.419839
41.351909 41.279616 41.202823 41.121859 41.036575 40.947342 40.854005 40.756974
40.656089 40.551800 40.443943 40.333007 40.218822 40.101915 39.982114 39.859977
39.735329 39.608758 39.480087 39.349927 39.218098 39.085231 38.951139 38.816470
38.681030 38.545475 38.409604 38.274075 38.138678 38.004070 37.870027 37.737199
37.605351 37.475117 37.346250 37.219365 37.094203 36.971352 36.850541 36.732330
36.616433 36.503380 36.392871 36.285401 36.180658 36.079101 35.980406 35.884991
35.792525 35.703384 35.617230 35.534396 35.454540 35.377953 35.304287 35.233792
35.166120 35.101477 35.039518 34.980405 34.923799 34.869820 34.818136 34.768826
34.721570 34.676404 34.633023 34.591424 34.551316 34.512660 34.475184 34.438812
34.403295 34.368520 34.334262 34.300378 34.266667
34.644444 34.689129 34.734015 34.779338 34.825262 34.872054 34.919840 34.968913
35.019360 35.071499 35.125372 35.181320 35.239340 35.299791 35.362624 35.428213
35.496460 35.567751 35.641940 35.719420 35.799996 35.884065 35.971381 36.062345
36.156657 36.254719 36.356178 36.461433 36.570081 36.682512 36.798275 36.917751
37.040439 37.166710 37.296017 37.428717 37.564220 37.702868 37.844031 37.988035
38.134215 38.282881 38.433335 38.585872 38.739767 38.895300 39.051727 39.209311
39.367294 39.525927 39.684444 39.843083 40.001080 40.158662 40.315069 40.470522
40.624274 40.776539 40.926590 41.074636 41.219976 41.362813 41.502481 41.639179
41.772275 41.901966 42.027662 42.149555 42.267098 42.380480 42.489199 42.593439
42.692746 42.787295 42.876681 42.961069 43.040103 43.113934 43.182257 43.245207
43.302527 43.354335 43.400421 43.440883 43.475558 43.504522 43.527659 43.545020
43.556536 43.562231 43.562084 43.556093 43.544281 43.526622 43.503183 43.473914
43.438928 43.398150 43.351742 43.299604 43.241947 43.178650 43.109972 43.035775
42.956365 42.871590 42.781805 42.686845 42.587115 42.482438 42.373269 42.259424
42.141405 42.019022 41.892823 41.762615 41.628990 41.491750 41.351528 41.208124
41.062208 40.913575 40.762928 40.610060 40.455696 40.299627 40.142600 39.984396
39.825776 39.666515 39.507380 39.348135 39.189549 39.031372 38.874368 38.718272
38.563835 38.410780 38.259834 38.110707 37.964100 37.819707 37.678198 37.539250
37.403500 37.270607 37.141170 37.014832 36.892150 36.772755 36.657156 36.544974
36.436670 36.331854 36.230941 36.133531 36.039991 35.949915 35.863619 35.780698
35.701415 35.625367 35.552765 35.483212 35.416870 35.353348 35.292759 35.234724
35.179307 35.126142 35.075249 35.026279 34.979206 34.933701 34.889694 34.846881
34.805152 34.764227 34.723956 34.684091 34.644444
35.022222 35.073731 35.125491 35.177713 35.230685 35.284574 35.339703 35.396194
35.454398 35.514390 35.576548 35.640897 35.707836 35.777339 35.849825 35.925212
36.003934 36.085855 36.171421 36.260437 36.353357 36.449929 36.550610 36.655090
36.763827 36.876450 36.993415 37.114294 37.239536 37.368653 37.502086 37.639292
37.780698 37.925708 38.074733 38.227127 38.383286 38.542512 38.705185 38.870564
39.039010 39.209743 39.383105 39.558283 39.735600 39.914216 40.094437 40.275403
40.457402 40.639564 40.822162 41.004320 41.186299 41.367226 41.547352 41.725816
41.902859 42.077641 42.250395 42.420308 42.587609 42.751517 42.912259 43.069092
43.222239 43.371004 43.515607 43.655397 43.790591 43.920593 44.045612 44.165105
44.279276 44.387637 44.490381 44.587077 44.677904 44.762488 44.840992 44.913097
44.978948 45.038281 45.091220 45.137553 45.177380 45.210544 45.237117 45.256994
45.270220 45.276741 45.276574 45.269715 45.256152 45.235934 45.209017 45.175505
45.135324 45.088631 45.035325 44.975616 44.909379 44.836879 44.757970 44.672969
44.581713 44.484576 44.381376 44.272546 44.157892 44.037900 43.912368 43.781838
43.646099 43.505750 43.360573 43.211218 43.057466 42.900014 42.738639 42.574085
42.406125 42.235542 42.062107 41.886636 41.708895 41.529727 41.348893 41.167255
40.984564 40.801697 40.618393 40.435533 40.252844 40.071202 39.890321 39.711064
39.533129 39.357360 39.183437 39.012179 38.843246 38.677425 38.514358 38.354793
38.198352 38.045743 37.896569 37.751489 37.610091 37.472983 37.339739 37.210914
37.086067 36.965698 36.849359 36.737491 36.629638 36.526185 36.426672 36.331425
36.239985 36.152620 36.068872 35.988953 35.912412 35.839404 35.769489 35.702766
35.638808 35.577662 35.518918 35.462570 35.408230 35.355843 35.305044 35.255729
35.207564 35.160397 35.113926 35.067958 35.022222
35.400000 35.458518 35.517298 35.576644 35.636773 35.698028 35.760575 35.824793
35.890798 35.958998 36.029455 36.102605 36.178450 36.257452 36.339552 36.425231
36.514370 36.607463 36.704326 36.805468 36.910637 37.020349 37.134287 37.252967
37.376009 37.503925 37.636269 37.773548 37.915251 38.061874 38.212841 38.368639
38.528626 38.693274 38.861883 39.034906 39.211587 39.392358 39.576411 39.764159
39.954745 40.148560 40.344709 40.543558 40.744179 40.946918 41.150820 41.356210
41.562115 41.768843 41.975411 42.182113 42.387962 42.593241 42.796972 42.999426
43.199643 43.397886 43.593222 43.785907 43.975042 44.160880 44.342562 44.520339
44.693400 44.861992 45.025357 45.183740 45.336440 45.483695 45.624867 45.760187
45.889077 46.011760 46.127722 46.237172 46.339661 46.435381 46.523946 46.605529
46.679806 46.746928 46.806630 46.859038 46.903948 46.941456 46.971417 46.993898
47.008810 47.016186 47.015998 47.008244 46.992953 46.970091 46.939743 46.901844
46.856537 46.803725 46.743610 46.676067 46.601359 46.519332 46.430312 46.334124
46.231153 46.121206 46.004733 45.881523 45.752090 45.616211 45.474462 45.326613
45.173302 45.014291 44.850279 44.681025 44.507284 44.328811 44.146417 43.959853
43.769978 43.576539 43.380438 43.181419 42.980418 42.777173 42.572646 42.366567
42.159918 41.952419 41.745058 41.537544 41.330866 41.124716 40.920073 40.716614
40.515300 40.315786 40.119009 39.924604 39.733473 39.545230 39.360737 39.179586
39.002593 38.829329 38.660559 38.495833 38.335863 38.180178 38.029432 37.883138
37.741890 37.605187 37.473558 37.346494 37.224459 37.106938 36.994329 36.886113
36.782624 36.683345 36.588545 36.497710 36.411046 36.328051 36.248864 36.172998
36.100532 36.030995 35.964406 35.900317 35.838690 35.779101 35.721458 35.665365
35.610679 35.557037 35.504246 35.451981 35.400000
35.777778 35.843489 35.909517 35.976130 36.043690 36.112412 36.182699 36.254710
36.328886 36.405326 36.484502 36.566452 36.651676 36.740147 36.832388 36.928303
37.028437 37.132622 37.241418 37.354585 37.472691 37.595426 37.723361 37.856113
37.994252 38.137322 38.285890 38.439423 38.598481 38.762459 38.931903 39.106139
39.285695 39.469830 39.659051 39.852553 40.050823 40.252993 40.459527 40.669501
40.883355 41.100116 41.320200 41.542590 41.767678 41.994414 42.223165 42.452857
42.683835 42.915009 43.146707 43.377831 43.608693 43.838201 44.066653 44.292971
44.517443 44.739017 44.957973 45.173293 45.385252 45.592875 45.796434 45.995003
46.188852 46.377114 46.560054 46.736866 46.907815 47.072160 47.230159 47.381140
47.525353 47.662197 47.791911 47.913962 48.028576 48.135289 48.234309 48.325242
48.408269 48.483068 48.549793 48.608186 48.658372 48.700159 48.733637 48.758680
48.775342 48.783560 48.783351 48.774715 48.757633 48.732168 48.698262 48.656042
48.605417 48.546576 48.479394 48.404128 48.320621 48.229198 48.129674 48.022441
47.907293 47.784692 47.654411 47.516983 47.372167 47.220565 47.061926 46.896923
46.725295 46.547785 46.364128 46.175132 45.980528 45.781186 45.576837 45.368408
45.155626 44.939470 44.719664 44.497229 44.271886 44.044690 43.815354 43.584959
43.353209 43.121200 42.888622 42.656577 42.424739 42.194205 41.964631 41.737097
41.511240 41.288115 41.067334 40.849921 40.635463 40.424943 40.217922 40.015335
39.816720 39.622957 39.433559 39.249346 39.069811 38.895709 38.726513 38.562912
38.404362 38.251482 38.103713 37.961605 37.824588 37.693140 37.566687 37.445632
37.329400 37.218322 37.111827 37.010174 36.912799 36.819891 36.730898 36.645940
36.564482 36.486578 36.411713 36.339876 36.270580 36.203750 36.138930 36.075985
36.014493 35.954264 35.894914 35.836199 35.777778
36.155556 36.228686 36.302141 36.376296 36.451421 36.527938 36.606056 36.686242
36.768640 36.853756 36.941666 37.032910 37.127494 37.225984 37.328316 37.435078
37.546129 37.662077 37.782702 37.908625 38.039546 38.176094 38.317889 38.465560
38.618647 38.777776 38.942407 39.113157 39.289404 39.471753 39.659506 39.853248
40.052204 40.256942 40.466609 40.681751 40.901447 41.126216 41.355073 41.588508
41.825479 42.066448 42.310322 42.557535 42.806951 43.058978 43.312445 43.567736
43.823657 44.080569 44.337267 44.594091 44.849835 45.104825 45.357864 45.609264
45.857854 46.103934 46.346366 46.585446 46.820076 47.050551 47.275824 47.496188
47.710656 47.919519 48.121857 48.317958 48.506975 48.689191 48.863834 49.031181
49.190536 49.342167 49.485455 49.620656 49.747227 49.865405 49.974726 50.075403
50.167047 50.249844 50.323478 50.388104 50.443477 50.489718 50.526654 50.554364
50.572746 50.581840 50.581612 50.572060 50.553218 50.525044 50.487640 50.440924
50.385068 50.319952 50.245817 50.162508 50.070339 49.969123 49.859248 49.740501
49.613343 49.477539 49.333628 49.181356 49.021339 48.853311 48.677965 48.495025
48.305264 48.108396 47.905270 47.695599 47.480302 47.259089 47.032948 46.801587
46.566053 46.326053 46.082688 45.835661 45.586115 45.333748 45.079738 44.823773
44.567054 44.309256 44.051592 43.793723 43.536859 43.280642 43.026272 42.773369
42.523110 42.275089 42.030453 41.788768 41.551138 41.317103 41.087717 40.862491
40.642423 40.426995 40.217142 40.012321 39.813399 39.619807 39.432340 39.250409
39.074733 38.904707 38.740970 38.582904 38.431070 38.284840 38.144696 38.010004
37.881167 37.757552 37.639482 37.526331 37.418342 37.314901 37.216173 37.121561
37.031155 36.944378 36.861249 36.781216 36.704227 36.629763 36.557705 36.487567
36.419169 36.352063 36.286010 36.220607 36.155556
36.533333 36.614102 36.695257 36.777123 36.860141 36.944573 37.030909 37.119344
37.210412 37.304236 37.401389 37.501920 37.606434 37.714904 37.827961 37.945497
38.068165 38.195775 38.328995 38.467549 38.612116 38.762331 38.918881 39.081311
39.250305 39.425322 39.607038 39.794824 39.989344 40.189881 40.397083 40.610147
40.829700 41.054856 41.286217 41.522820 41.765238 42.012432 42.264947 42.521677
42.783134 43.048153 43.317213 43.589098 43.864256 44.141429 44.421035 44.701785
44.984072 45.266585 45.549694 45.832081 46.114097 46.394430 46.673413 46.949754
47.223774 47.494211 47.761381 48.024061 48.282565 48.535722 48.783843 49.025822
49.261968 49.491243 49.713959 49.929153 50.137134 50.337021 50.529118 50.712629
50.887850 51.054069 51.211572 51.359730 51.498813 51.628277 51.748370 51.858630
51.959278 52.049934 52.130785 52.201531 52.262322 52.312934 52.353479 52.383806
52.403984 52.413938 52.413689 52.403238 52.382560 52.351729 52.310676 52.259548
52.198233 52.126954 52.045558 51.954345 51.853127 51.742280 51.621586 51.491502
51.351781 51.202966 51.044786 50.877869 50.701928 50.517675 50.324812 50.124137
49.915345 49.699316 49.475742 49.245586 49.008537 48.765633 48.516565 48.262442
48.002954 47.739271 47.471084 47.199615 46.924551 46.647159 46.367116 46.085722
45.802642 45.519195 45.235032 44.951477 44.668162 44.386406 44.105815 43.827690
43.551612 43.278852 43.008960 42.743167 42.480992 42.223615 41.970524 41.722839
41.480018 41.243113 41.011552 40.786316 40.566803 40.353916 40.147029 39.946965
39.753073 39.566093 39.385359 39.211521 39.043902 38.883066 38.728326 38.580159
38.437876 38.301868 38.171448 38.046920 37.927607 37.813728 37.704620 37.600420
37.500483 37.404866 37.312952 37.224719 37.139579 37.057437 36.977741 36.900324
36.824677 36.750563 36.677519 36.605247 36.533333
36.911111 36.999783 37.088845 37.178746 37.269811 37.362545 37.457201 37.554335
37.654127 37.757176 37.863582 37.973984 38.088400 38.207501 38.331218 38.460250
38.594439 38.734504 38.880194 39.032242 39.190306 39.355125 39.526262 39.704456
39.889175 40.081154 40.279763 40.485727 40.698320 40.918252 41.144702 41.378357
41.618305 41.865209 42.118068 42.377513 42.642461 42.913511 43.189503 43.470999
43.756769 44.047342 44.341425 44.639511 44.940256 45.244120 45.549717 45.857476
46.165985 46.475642 46.785021 47.094497 47.402643 47.709814 48.014595 48.317330
48.616628 48.912824 49.204569 49.492191 49.774393 50.051502 50.322285 50.587069
50.844694 51.095488 51.338372 51.573675 51.800403 52.018885 52.228216 52.428721
52.619587 52.801130 52.972631 53.134390 53.285780 53.427080 53.557756 53.678061
53.787547 53.886435 53.974363 54.051517 54.117616 54.172804 54.216883 54.249949
54.271885 54.282739 54.282472 54.271081 54.248606 54.214997 54.170369 54.114625
54.047960 53.970231 53.881715 53.782226 53.672124 53.551187 53.419861 53.277891
53.125813 52.963344 52.791112 52.608814 52.417169 52.215862 52.005703 51.786370
51.558764 51.322558 51.078746 50.826999 50.568397 50.302612 50.030805 49.752650
49.469382 49.180676 48.887830 48.590517 48.290089 47.986216 47.680289 47.371967
47.062672 46.752048 46.441530 46.130744 45.821126 45.512276 45.205616 44.900722
44.598986 44.299951 44.004974 43.713563 43.427023 43.144827 42.868221 42.596642
42.331266 42.071497 41.818434 41.571447 41.331555 41.098097 40.872004 40.652590
40.440696 40.235612 40.038087 39.847395 39.664189 39.487732 39.318582 39.155995
39.000435 38.851159 38.708535 38.571826 38.441310 38.316259 38.196861 38.082407
37.972996 37.867944 37.767263 37.670300 37.576986 37.486702 37.399301 37.314205
37.231192 37.149731 37.069530 36.990110 36.911111
37.288889 37.385715 37.482998 37.581126 37.680617 37.781787 37.885211 37.991127
38.100160 38.212466 38.328715 38.448976 38.573956 38.703634 38.838750 38.979187
39.125710 39.278106 39.437157 39.602549 39.775077 39.954326 40.141093 40.334860
40.536422 40.745158 40.961853 41.185782 41.417714 41.656823 41.903856 42.157884
42.419629 42.688066 42.963884 43.245964 43.534961 43.829667 44.130701 44.436775
44.748466 45.064416 45.385161 45.709282 46.037276 46.367674 46.700936 47.035554
47.371957 47.708613 48.045922 48.382342 48.718252 49.052114 49.384289 49.713264
50.039385 50.361177 50.678978 50.991365 51.298674 51.599545 51.894316 52.181701
52.462042 52.734137 52.998330 53.253512 53.500029 53.736868 53.964373 54.181630
54.388981 54.585609 54.771844 54.946972 55.111305 55.264226 55.406024 55.536178
55.654944 55.761896 55.857252 55.940676 56.012345 56.072008 56.119794 56.155537
56.179318 56.191051 56.190764 56.178456 56.154098 56.117773 56.069398 56.009140
55.936865 55.852824 55.756837 55.649241 55.529814 55.398982 55.256487 55.102848
54.937775 54.761885 54.574864 54.377425 54.169239 53.951120 53.722725 53.484971
53.237511 52.981358 52.716167 52.443048 52.161656 51.873194 51.577321 51.275326
50.966870 50.653316 50.334329 50.011337 49.684000 49.353801 49.020392 48.685293
48.348146 48.010493 47.671958 47.334090 46.996491 46.660703 46.326298 45.994795
45.665735 45.340599 45.018892 44.702047 44.389529 44.082710 43.781016 43.485750
43.196297 42.913880 42.637846 42.369335 42.107655 41.853856 41.607214 41.368682
41.137511 40.914551 40.699033 40.491708 40.291786 40.099917 39.915304 39.738490
39.568676 39.406303 39.250574 39.101832 38.959285 38.823180 38.692740 38.568116
38.448554 38.334109 38.224059 38.118367 38.016346 37.917875 37.822305 37.729434
37.638660 37.549703 37.462015 37.375239 37.288889
37.666667 37.771947 37.877684 37.984406 38.092494 38.202539 38.314843 38.430053
38.548386 38.670538 38.796637 38.927423 39.062928 39.203931 39.350363 39.503034
39.661772 39.827409 39.999669 40.179398 40.366212 40.560964 40.763162 40.973658
41.191848 41.418578 41.653131 41.896341 42.147379 42.407056 42.674437 42.950304
43.233614 43.525117 43.823669 44.129981 44.442810 44.762828 45.088700 45.421055
45.758475 46.101545 46.448775 46.800704 47.155781 47.514505 47.875275 48.238552
48.602701 48.968147 49.333240 49.698376 50.061902 50.424193 50.783610 51.140512
51.493295 51.842307 52.185991 52.524694 52.856921 53.183020 53.501572 53.812930
54.115764 54.410429 54.695694 54.971919 55.237974 55.494225 55.739646 55.974601
56.198174 56.410722 56.611436 56.800661 56.977693 57.142855 57.295549 57.436069
57.563917 57.679350 57.781967 57.871983 57.949090 58.013455 58.064859 58.103415
58.128995 58.141653 58.141348 58.128076 58.101882 58.062705 58.010674 57.945674
57.867922 57.777247 57.673959 57.557838 57.429286 57.288042 57.134603 56.968675
56.790854 56.600815 56.399262 56.185848 55.961382 55.725505 55.479135 55.221905
54.954841 54.677577 54.391246 54.095484 53.791527 53.479016 53.159286 52.831983
52.498529 52.158577 51.813624 51.463326 51.109243 50.751029 50.390293 50.026678
49.661829 49.295372 48.928969 48.562224 48.196799 47.832269 47.470279 47.110372
46.754159 46.401143 46.052891 45.708863 45.370565 45.037415 44.710847 44.390233
44.076927 43.770259 43.471491 43.179913 42.896691 42.621076 42.354134 42.095083
41.844883 41.602723 41.369456 41.144250 40.927847 40.719400 40.519542 40.327417
40.143547 39.967075 39.798415 39.636716 39.482286 39.334283 39.192914 39.057357
38.927716 38.803196 38.683804 38.568778 38.458031 38.350842 38.247032 38.145929
38.047267 37.950428 37.855065 37.760619 37.666667
38.044444 38.158457 38.273000 38.388527 38.505638 38.624705 38.746392 38.870982
38.999197 39.131225 39.267839 39.409128 39.555908 39.708165 39.866749 40.031541
40.203416 40.382146 40.568625 40.762510 40.964708 41.174759 41.393572 41.620571
41.856661 42.101145 42.354915 42.617156 42.888741 43.168735 43.457985 43.755440
44.061912 44.376239 44.699193 45.029503 45.367898 45.713006 46.065508 46.423938
46.788928 47.158928 47.534521 47.914082 48.298149 48.685036 49.075235 49.467017
49.860832 50.254924 50.649707 51.043414 51.436433 51.827004 52.215494 52.600168
52.981383 53.357447 53.728711 54.093545 54.452299 54.803421 55.147267 55.482373
55.809104 56.126096 56.433725 56.730733 57.017502 57.292892 57.557286 57.809659
58.050394 58.278582 58.494597 58.697645 58.888084 59.065231 59.229419 59.380073