# vtk DataFile Version 3.0
Steady-state temperature (Jacobi)
ASCII
DATASET STRUCTURED_POINTS
DIMENSIONS 181 181 1
ORIGIN 0.0 0.0 0.0
SPACING 0.05 0.05 1.0
POINT_DATA 32761
SCALARS Temperature float 1
LOOKUP_TABLE default
32.000000 32.000000 32.000000 32.000000 32.000000 32.000000 32.000000 32.000000
32.000000 32.000000 32.000000 32.000000 32.000000 32.000000 32.000000 32.000000
32.000000 32.000000 32.000000 32.000000 32.000000 32.000000 32.000000 32.000000
32.000000 32.000000 32.000000 32.000000 32.000000 32.000000 32.000000 32.000000
32.000000 32.000000 32.000000 32.000000 32.000000 32.000000 32.000000 32.000000
32.000000 32.000000 32.000000 32.000000 32.000000 32.000000 32.000000 32.000000
32.000000 32.000000 32.000000 32.000000 32.000000 32.000000 32.000000 32.000000
32.000000 32.000000 32.000000 32.000000 32.000000 32.000000 32.000000 32.000000
32.000000 32.000000 32.000000 32.000000 32.000000 32.000000 32.000000 32.000000
32.000000 32.000000 32.000000 32.000000 32.000000 32.000000 32.000000 32.000000
32.000000 32.000000 32.000000 32.000000 32.000000 32.000000 32.000000 32.000000
32.000000 32.000000 32.000000 32.000000 32.000000 32.000000 32.000000 32.000000
32.000000 32.000000 32.000000 32.000000 32.000000 32.000000 32.000000 32.000000
32.000000 32.000000 32.000000 32.000000 32.000000 32.000000 32.000000 32.000000
32.000000 32.000000 32.000000 32.000000 32.000000 32.000000 32.000000 32.000000
32.000000 32.000000 32.000000 32.000000 32.000000 32.000000 32.000000 32.000000
32.000000 32.000000 32.000000 32.000000 32.000000 32.000000 32.000000 32.000000
32.000000 32.000000 32.000000 32.000000 32.000000 32.000000 32.000000 32.000000
32.000000 32.000000 32.000000 32.000000 32.000000 32.000000 32.000000 32.000000
32.000000 32.000000 32.000000 32.000000 32.000000 32.000000 32.000000 32.000000
32.000000 32.000000 32.000000 32.000000 32.000000 32.000000 32.000000 32.000000
32.000000 32.000000 32.000000 32.000000 32.000000 32.000000 32.000000 32.000000
32.000000 32.000000 32.000000 32.000000 32.000000
32.377778 32.406277 32.434782 32.463301 32.491840 32.520405 32.549003 32.577639
32.606320 32.635051 32.663836 32.692681 32.721590 32.750568 32.779616 32.808739
32.837937 32.867214 32.896568 32.926003 32.955514 32.985105 33.014768 33.044505
33.074308 33.104178 33.134102 33.164081 33.194100 33.224158 33.254240 33.284340
33.314441 33.344538 33.374610 33.404650 33.434636 33.464559 33.494395 33.524132
33.553747 33.583225 33.612540 33.641678 33.670611 33.699324 33.727787 33.755984
33.783886 33.811476 33.838724 33.865612 33.892110 33.918202 33.943858 33.969060
33.993781 34.018003 34.041699 34.064853 34.087440 34.109444 34.130841 34.151618
34.171752 34.191232 34.210036 34.228154 34.245568 34.262269 34.278241 34.293475
34.307958 34.321684 34.334641 34.346823 34.358221 34.368830 34.378643 34.387657
34.395865 34.403265 34.409851 34.415623 34.420576 34.424710 34.428022 34.430511
34.432177 34.433018 34.433035 34.432228 34.430596 34.428141 34.424865 34.420767
34.415851 34.410117 34.403571 34.396213 34.388049 34.379080 34.369315 34.358756
34.347411 34.335285 34.322387 34.308723 34.294306 34.279141 34.263243 34.246620
34.229288 34.211257 34.192544 34.173161 34.153129 34.132460 34.111176 34.089291
34.066831 34.043809 34.020252 33.996176 33.971609 33.946567 33.921080 33.895164
33.868851 33.842156 33.815110 33.787731 33.760050 33.732082 33.703858 33.675394
33.646721 33.617852 33.588818 33.559630 33.530318 33.500894 33.471383 33.441797
33.412159 33.382479 33.352780 33.323068 33.293365 33.263675 33.234017 33.204394
33.174824 33.145307 33.115859 33.086478 33.057177 33.027955 32.998821 32.969773
32.940817 32.911951 32.883180 32.854498 32.825909 32.797407 32.768994 32.740664
32.712415 32.684240 32.656139 32.628103 32.600130 32.572211 32.544342 32.516514
32.488724 32.460961 32.433221 32.405496 32.377778
32.755556 32.812558 32.869573 32.926615 32.983698 33.040832 33.098033 33.155309
33.212677 33.270142 33.327720 33.385415 33.443241 33.501201 33.559306 33.617557
33.675964 33.734523 33.793244 33.852119 33.911156 33.970343 34.029685 34.089167
34.148790 34.208537 34.268405 34.328371 34.388431 34.448557 34.508742 34.568953
34.629180 34.689385 34.749556 34.809649 34.869649 34.929509 34.989209 35.048700
35.107959 35.166932 35.225593 35.283886 35.341784 35.399227 35.456185 35.512598
35.568434 35.623632 35.678158 35.731953 35.784981 35.837183 35.888524 35.938946
35.988416 36.036876 36.084296 36.130619 36.175818 36.219840 36.262658 36.304224
36.344514 36.383484 36.421111 36.457357 36.492202 36.525612 36.557569 36.588044
36.617023 36.644480 36.670404 36.694772 36.717576 36.738798 36.758431 36.776461
36.792882 36.807682 36.820859 36.832404 36.842313 36.850581 36.857207 36.862187
36.865519 36.867201 36.867235 36.865620 36.862356 36.857446 36.850891 36.842695
36.832859 36.821392 36.808295 36.793578 36.777243 36.759305 36.739767 36.718646
36.695948 36.671691 36.645885 36.618553 36.589705 36.559370 36.527559 36.494305
36.459624 36.423552 36.386108 36.347332 36.307246 36.265895 36.223304 36.179521
36.134574 36.088515 36.041373 35.993205 35.944042 35.893942 35.842937 35.791089
35.738430 35.685022 35.630899 35.576124 35.520728 35.464774 35.408294 35.351350
35.293971 35.236217 35.178116 35.119726 35.061071 35.002207 34.943157 34.883970
34.824667 34.765294 34.705869 34.646434 34.587002 34.527612 34.468273 34.409019
34.349856 34.290815 34.231898 34.173129 34.114510 34.056059 33.997775 33.939673
33.881748 33.824011 33.766455 33.709087 33.651897 33.594891 33.538054 33.481389
33.424882 33.368531 33.312321 33.256246 33.200292 33.144451 33.088706 33.033049
32.977462 32.921935 32.866450 32.810996 32.755556
33.133333 33.218847 33.304381 33.389956 33.475589 33.561304 33.647114 33.733044
33.819105 33.905320 33.991697 34.078258 34.165009 34.251970 34.339140 34.426540
34.514164 34.602030 34.690127 34.778470 34.867043 34.955857 35.044890 35.134150
35.223608 35.313269 35.403096 35.493090 35.583209 35.673447 35.763757 35.854126
35.944501 36.034866 36.125159 36.215360 36.305400 36.395254 36.484849 36.574152
36.663087 36.751615 36.839656 36.927168 37.014065 37.100302 37.185791 37.270484
37.354290 37.437160 37.519002 37.599766 37.679360 37.757733 37.834795 37.910496
37.984748 38.057503 38.128677 38.198223 38.266062 38.332152 38.396416 38.458817
38.519285 38.577786 38.634256 38.688666 38.740958 38.791108 38.839065 38.884809
38.928294 38.969505 39.008404 39.044978 39.079195 39.111045 39.140503 39.167561
39.192198 39.214409 39.234179 39.251503 39.266370 39.278778 39.288718 39.296190
39.301189 39.303714 39.303765 39.301341 39.296444 39.289076 39.279241 39.266942
39.252187 39.234978 39.215328 39.193241 39.168735 39.141813 39.112499 39.080799
39.046741 39.010335 38.971612 38.930588 38.887300 38.841765 38.794029 38.744112
38.692065 38.637916 38.581721 38.523510 38.463348 38.401270 38.337346 38.271615
38.204153 38.135004 38.064247 37.991930 37.918138 37.842919 37.766363 37.688520
37.609480 37.529296 37.448060 37.365823 37.282677 37.198672 37.113902 37.028412
36.942293 36.855590 36.768390 36.680735 36.592707 36.504344 36.415724 36.326880
36.237885 36.148765 36.059590 35.970380 35.881198 35.792059 35.703019 35.614089
35.525318 35.436710 35.348309 35.260115 35.172164 35.084450 34.997004 34.909818
34.822913 34.736277 34.649928 34.563849 34.478051 34.392517 34.307251 34.222232
34.137461 34.052916 33.968591 33.884462 33.800522 33.716746 33.633121 33.549622
33.466233 33.382930 33.299695 33.216503 33.133333
33.511111 33.625149 33.739215 33.853333 33.967534 34.081838 34.196278 34.310870
34.425645 34.540619 34.655819 34.771257 34.886959 35.002931 35.119198 35.235758
35.352635 35.469819 35.587332 35.705157 35.823310 35.941768 36.060541 36.179598
36.298944 36.418541 36.538387 36.658433 36.778675 36.899053 37.019555 37.140115
37.260713 37.381272 37.501767 37.622114 37.742279 37.862169 37.981745 38.100907
38.219608 38.337741 38.455254 38.572036 38.688027 38.803112 38.917228 39.030255
39.142128 39.252725 39.361979 39.469766 39.576019 39.680616 39.783490 39.884521
39.983643 40.080741 40.175752 40.268566 40.359123 40.447320 40.533102 40.616374
40.697085 40.775148 40.850520 40.923120 40.992912 41.059824 41.123826 41.184855
41.242886 41.297865 41.349771 41.398561 41.444218 41.486704 41.526007 41.562099
41.594969 41.624594 41.650969 41.674075 41.693909 41.710457 41.723718 41.733683
41.740351 41.743719 41.743786 41.740554 41.734021 41.724195 41.711075 41.694671
41.674986 41.652034 41.625818 41.596359 41.563662 41.527753 41.488640 41.446355
41.400910 41.352344 41.300672 41.245942 41.188175 41.127424 41.063716 40.997114
40.927651 40.855397 40.780392 40.702716 40.622413 40.539572 40.454243 40.366524
40.276470 40.184185 40.089730 39.993217 39.894708 39.794320 39.692120 39.588230
39.482715 39.375701 39.267255 39.157502 39.046509 38.934400 38.821241 38.707153
38.592199 38.476497 38.360104 38.243136 38.125643 38.007736 37.889459 37.770915
37.652144 37.533239 37.414234 37.295215 37.176208 37.057290 36.938479 36.819846
36.701400 36.583203 36.465259 36.347618 36.230280 36.113286 35.996629 35.880342
35.764412 35.648865 35.533682 35.418881 35.304440 35.190368 35.076641 34.963260
34.850197 34.737449 34.624984 34.512795 34.400848 34.289129 34.177604 34.066255
33.955049 33.843962 33.732962 33.622022 33.511111
33.888889 34.031468 34.174081 34.316763 34.459544 34.602462 34.745542 34.888823
35.032325 35.176087 35.320123 35.464470 35.609138 35.754159 35.899536 36.045301
36.191446 36.337999 36.484945 36.632308 36.780061 36.928224 37.076760 37.225682
37.374944 37.524551 37.674447 37.824628 37.975027 38.125634 38.276370 38.427215
38.578079 38.728935 38.879682 39.030283 39.180627 39.330667 39.480284 39.629422
39.777953 39.925813 40.072867 40.219043 40.364199 40.508259 40.651075 40.792565
40.932579 41.071031 41.207769 41.342707 41.475692 41.606637 41.735392 41.861872
41.985931 42.107486 42.226396 42.342584 42.455916 42.566320 42.673671 42.777905
42.878904 42.976612 43.070923 43.161787 43.249111 43.332850 43.412922 43.489293
43.561889 43.630683 43.695614 43.756658 43.813766 43.866919 43.916077 43.961227
44.002336 44.039395 44.072379 44.101281 44.126083 44.146782 44.163364 44.175827
44.184166 44.188378 44.188462 44.184418 44.176250 44.163959 44.147553 44.127034
44.102418 44.073708 44.040924 44.004072 43.963180 43.918257 43.869338 43.816435
43.759592 43.698826 43.634191 43.565707 43.493440 43.417416 43.337711 43.254360
43.167447 43.077017 42.983163 42.885939 42.785450 42.681754 42.574970 42.465163
42.352460 42.236933 42.118718 41.997893 41.874601 41.748925 41.621013 41.490950
41.358889 41.224917 41.089189 40.951791 40.812878 40.672535 40.530916 40.388102
40.244242 40.099414 39.953762 39.807357 39.660337 39.512766 39.364774 39.216416
39.067815 38.919016 38.770133 38.621202 38.472326 38.323532 38.174912 38.026486
37.878332 37.730462 37.582945 37.435782 37.289032 37.142688 36.996798 36.851348
36.706375 36.561860 36.417828 36.274254 36.131155 35.988501 35.846300 35.704517
35.563151 35.422166 35.281553 35.141271 35.001307 34.861619 34.722185 34.582963
34.443928 34.305037 34.166260 34.027555 33.888889
34.266667 34.437807 34.608990 34.780253 34.951640 35.123187 35.294938 35.466923
35.639187 35.811752 35.984663 36.157936 36.331613 36.505701 36.680240 36.855226
37.030698 37.206640 37.383085 37.560008 37.737435 37.915329 38.093710 38.272528
38.451794 38.631448 38.811490 38.991848 39.172511 39.353394 39.534477 39.715661
39.896915 40.078127 40.259257 40.440177 40.620838 40.801100 40.980902 41.160094
41.338606 41.516276 41.693025 41.868683 42.043163 42.216289 42.387965 42.558010
42.726325 42.892725 43.057108 43.219288 43.379162 43.536545 43.691334 43.843349
43.992490 44.138582 44.281530 44.421167 44.557404 44.690083 44.819123 44.944378
45.065774 45.183179 45.296528 45.405700 45.510640 45.611243 45.707460 45.799201
45.886427 45.969058 46.047066 46.120382 46.188984 46.252817 46.311864 46.366081
46.415456 46.459954 46.499567 46.534268 46.564053 46.588904 46.608817 46.623780
46.633793 46.638850 46.638950 46.634096 46.624287 46.609530 46.589828 46.565194
46.535631 46.501160 46.461786 46.417537 46.368422 46.314478 46.255716 46.192184
46.123899 46.050917 45.973263 45.891005 45.804173 45.712849 45.617071 45.516935
45.412486 45.303834 45.191035 45.074210 44.953426 44.828816 44.700457 44.568494
44.433012 44.294168 44.152054 44.006838 43.858617 43.707566 43.553788 43.397464
43.238699 43.077678 42.914507 42.749372 42.582377 42.413709 42.243469 42.071838
41.898914 41.724874 41.549806 41.373883 41.197184 41.019873 40.842020 40.663778
40.485207 40.306450 40.127556 39.948655 39.769786 39.591065 39.412520 39.234254
39.056286 38.878703 38.701515 38.524795 38.348542 38.172819 37.997614 37.822976
37.648886 37.475381 37.302433 37.130068 36.958253 36.787001 36.616274 36.446075
36.276360 36.107125 35.938322 35.769937 35.601921 35.434251 35.266877 35.099770
34.932879 34.766170 34.599593 34.433108 34.266667
34.644444 34.844171 35.043945 35.243818 35.443832 35.644041 35.844482 36.045208
36.246251 36.447663 36.649468 36.851716 37.054421 37.257633 37.461353 37.665628
37.870447 38.075852 38.281821 38.488387 38.695517 38.903235 39.111494 39.320311
39.529621 39.739433 39.949669 40.160323 40.371304 40.582594 40.794086 41.005750
41.217462 41.429182 41.640770 41.852171 42.063231 42.273885 42.483962 42.693386
42.901975 43.109639 43.316186 43.521516 43.725426 43.927809 44.128456 44.327250
44.523978 44.718520 44.910660 45.100273 45.287145 45.471153 45.652082 45.829813
46.004137 46.174939 46.342018 46.505266 46.664493 46.819597 46.970403 47.116817
47.258677 47.395903 47.528346 47.655936 47.778541 47.896103 48.008505 48.115698
48.217584 48.314122 48.405229 48.490874 48.570988 48.645547 48.714495 48.777816
48.835464 48.887428 48.933675 48.974196 49.008967 49.037983 49.061228 49.078699
49.090387 49.096291 49.096408 49.090740 49.079289 49.062059 49.039060 49.010295
48.975784 48.935530 48.889563 48.837888 48.780543 48.717540 48.648925 48.574717
48.494973 48.409717 48.319022 48.222918 48.121492 48.014784 47.902896 47.785878
47.663846 47.536863 47.405060 47.268511 47.127364 46.981703 46.831691 46.677422
46.519075 46.356753 46.190646 46.020866 45.847615 45.671009 45.491260 45.308488
45.122909 44.934647 44.743922 44.550856 44.355668 44.158480 43.959509 43.758869
43.556774 43.353332 43.148748 42.943121 42.736648 42.529417 42.321614 42.113316
41.904695 41.695817 41.486839 41.277814 41.068886 40.860094 40.651565 40.443327
40.235492 40.028074 39.821169 39.614780 39.408987 39.203782 38.999229 38.795310
38.592075 38.389497 38.187610 37.986379 37.785828 37.585911 37.386641 37.187967
36.989889 36.792352 36.595345 36.398811 36.202728 36.007038 35.811710 35.616684
35.421922 35.227367 35.032972 34.838681 34.644444
35.022222 35.250562 35.478958 35.707464 35.936140 36.165033 36.394203 36.623692
36.853561 37.083840 37.314591 37.545836 37.777631 38.009988 38.242961 38.476547
38.710795 38.945690 39.181273 39.417515 39.654448 39.892027 40.130276 40.369134
40.608612 40.848633 41.089196 41.330206 41.571651 41.813415 42.055474 42.297694
42.540035 42.782347 43.024574 43.266549 43.508203 43.749349 43.989906 44.229671
44.468548 44.706323 44.942886 45.178010 45.411574 45.643343 45.873187 46.100861
46.326230 46.549045 46.769166 46.986344 47.200436 47.411195 47.618480 47.822048
48.021762 48.217388 48.408795 48.595759 48.778158 48.955784 49.128522 49.296180
49.458657 49.615776 49.767450 49.913519 50.053910 50.188480 50.317170 50.439856
50.556489 50.666964 50.771244 50.869241 50.960925 51.046226 51.125122 51.197557
51.263515 51.322952 51.375860 51.422205 51.461981 51.495165 51.521754 51.541733
51.555101 51.561853 51.561987 51.555504 51.542406 51.522702 51.496393 51.463497
51.424016 51.377978 51.325388 51.266281 51.200669 51.128597 51.050081 50.965181
50.873918 50.776367 50.672557 50.562578 50.446469 50.324338 50.196235 50.062285
49.922550 49.777174 49.626232 49.469885 49.308223 49.141426 48.969593 48.792923
48.611529 48.425622 48.235327 48.040869 47.842380 47.640098 47.434161 47.224814
47.012199 46.796567 46.578061 46.356933 46.133324 45.907486 45.679556 45.449781
45.218290 44.985324 44.751003 44.515558 44.279097 44.041839 43.803882 43.565428
43.326562 43.087471 42.848225 42.608995 42.369834 42.130898 41.892225 41.653951
41.416100 41.178791 40.942033 40.705926 40.470468 40.235739 40.001725 39.768491
39.536009 39.304328 39.073410 38.843290 38.613920 38.385318 38.157432 37.930265
37.703759 37.477905 37.252638 37.027940 36.803743 36.580016 36.356692 36.133730
35.911062 35.688641 35.466398 35.244280 35.022222
35.400000 35.656984 35.914030 36.171207 36.428569 36.686187 36.944111 37.202411
37.461127 37.720331 37.980051 38.240357 38.501266 38.762843 39.025094 39.288077
39.551783 39.816263 40.081494 40.347518 40.614294 40.881854 41.150139 41.419171
41.688870 41.959246 42.230199 42.501725 42.773704 43.046117 43.318823 43.591787
43.864848 44.137953 44.410922 44.683685 44.956044 45.227910 45.499066 45.769410
46.038707 46.306839 46.573556 46.838728 47.102091 47.363504 47.622694 47.879508
48.133670 48.385019 48.633274 48.878273 49.119735 49.357496 49.591281 49.820928
50.046169 50.266850 50.482711 50.693608 50.899297 51.099643 51.294420 51.483504
51.666689 51.843866 52.014848 52.179542 52.337780 52.489487 52.634515 52.772801
52.904221 53.028725 53.146206 53.256629 53.359904 53.456007 53.544864 53.626460
53.700736 53.767683 53.827256 53.879450 53.924233 53.961602 53.991536 54.014033
54.029083 54.036684 54.036835 54.029535 54.014790 53.992600 53.962981 53.925935
53.881484 53.829634 53.770417 53.703842 53.629955 53.548766 53.460336 53.364684
53.261882 53.151960 53.035007 52.911061 52.780231 52.642568 52.498200 52.347190
52.189689 52.025773 51.855615 51.679306 51.497039 51.308921 51.115165 50.915892
50.711334 50.501626 50.287015 50.067647 49.843786 49.615584 49.383316 49.147142
48.907343 48.664081 48.417644 48.168192 47.916011 47.661262 47.404225 47.145054
46.884024 46.621279 46.357085 46.091572 45.824996 45.557472 45.289240 45.020402
44.751181 44.481661 44.212047 43.942408 43.672927 43.403656 43.134760 42.866273
42.598339 42.330975 42.064306 41.798333 41.533158 41.268771 41.005254 40.742582
40.480817 40.219923 39.959946 39.700836 39.442623 39.185249 38.928726 38.672990
38.418037 38.163798 37.910254 37.657333 37.405004 37.153191 36.901853 36.650912
36.400319 36.149995 35.899882 35.649905 35.400000
35.777778 36.063439 36.349172 36.635047 36.921139 37.207509 37.494236 37.781371
38.068994 38.357145 38.645902 38.935293 39.225394 39.516217 39.807834 40.100243
40.393507 40.687608 40.982599 41.278446 41.575191 41.872779 42.171241 42.470501
42.770578 43.071372 43.372887 43.675003 43.977705 44.280851 44.584408 44.888212
45.192211 45.496218 45.800163 46.103835 46.407146 46.709864 47.011882 47.312947
47.612936 47.911578 48.208732 48.504112 48.797564 49.088788 49.377618 49.663745
49.946993 50.227049 50.503731 50.776723 51.045842 51.310774 51.571338 51.827225
52.078260 52.324146 52.564715 52.799685 53.028898 53.252091 53.469120 53.679743
53.883829 54.081160 54.271623 54.455021 54.631260 54.800167 54.961663 55.115601
55.261917 55.400486 55.531261 55.654136 55.769077 55.875998 55.974876 56.065643
56.148283 56.222743 56.289016 56.347061 56.396875 56.438429 56.471723 56.496739
56.513477 56.521929 56.522095 56.513978 56.497577 56.472904 56.439959 56.398762
56.349317 56.291652 56.225775 56.151727 56.069518 55.979203 55.880799 55.774377
55.659962 55.537643 55.407454 55.269504 55.123842 54.970597 54.809832 54.641700
54.466279 54.283746 54.094197 53.897831 53.694762 53.485215 53.269317 53.047317
52.819359 52.585711 52.346531 52.102104 51.852600 51.598320 51.339440 51.076273
50.809000 50.537940 50.263276 49.985328 49.704280 49.420448 49.134010 48.845277
48.554417 48.261734 47.967382 47.671652 47.374684 47.076753 46.777983 46.478632
46.178805 45.878738 45.578520 45.278366 44.978343 44.678644 44.379319 44.080537
43.782329 43.484841 43.188085 42.892185 42.597136 42.303039 42.009874 41.717721
41.426544 41.136402 40.847248 40.559120 40.271961 39.985789 39.700539 39.416211
39.132732 38.850088 38.568199 38.287036 38.006516 37.726598 37.447195 37.168255
36.889692 36.611443 36.333423 36.055562 35.777778
36.155556 36.469930 36.784384 37.099000 37.413850 37.729022 38.044579 38.360608
38.677162 38.994329 39.312148 39.630704 39.950022 40.270183 40.591196 40.913135
41.235990 41.559828 41.884620 42.210421 42.537182 42.864945 43.193640 43.523293
43.853811 44.185206 44.517358 44.850262 45.183774 45.517869 45.852379 46.187256
46.522308 46.857468 47.192516 47.527365 47.861770 48.195623 48.528656 48.860740
49.191587 49.521048 49.848815 50.174724 50.498448 50.819809 51.138470 51.454238
51.766769 52.075860 52.381164 52.682474 52.979442 53.271861 53.559389 53.841822
54.118827 54.390209 54.655649 54.914963 55.167850 55.414142 55.653557 55.885945
56.111049 56.328737 56.538779 56.741061 56.935380 57.121642 57.299670 57.469390
57.630651 57.783395 57.927497 58.062914 58.189542 58.307354 58.416266 58.516260
58.607270 58.689287 58.762262 58.826189 58.881033 58.926794 58.963447 58.990992
59.009417 59.018723 59.018906 59.009967 58.991912 58.964742 58.928472 58.883104
58.828664 58.765155 58.692615 58.611050 58.520513 58.421015 58.312624 58.195360
58.069309 57.934502 57.791044 57.638980 57.478439 57.309480 57.132256 56.946845
56.753426 56.552094 56.343057 56.126429 55.902445 55.671237 55.433067 55.188087
54.936581 54.678719 54.414807 54.145029 53.869709 53.589042 53.303367 53.012887
52.717951 52.418764 52.115681 51.808908 51.498798 51.185554 50.869524 50.550902
50.230030 49.907087 49.582403 49.256143 48.928620 48.599983 48.270524 47.940373
47.609801 47.278918 46.947971 46.617047 46.286371 45.956008 45.626157 45.296861
44.968294 44.640480 44.313565 43.987554 43.662569 43.338596 43.015732 42.693948
42.373316 42.053791 41.735425 41.418159 41.102024 40.786949 40.472945 40.159934
39.847907 39.536777 39.226522 38.917048 38.608318 38.300234 37.992746 37.685756
37.379200 37.072983 36.767030 36.461249 36.155556
36.533333 36.876458 37.219674 37.563063 37.906722 38.250724 38.595168 38.940118
39.285672 39.631880 39.978840 40.326588 40.675215 41.024743 41.375257 41.726758
42.079325 42.432939 42.787667 43.143469 43.500398 43.858391 44.217487 44.577598
44.938746 45.300817 45.663814 46.027595 46.392144 46.757292 47.122999 47.489069
47.855440 48.221886 48.588322 48.954496 49.320298 49.685449 50.049818 50.413099
50.775138 51.135609 51.494337 51.850974 52.205329 52.557037 52.905891 53.251516
53.593692 53.932037 54.266325 54.596169 54.921342 55.241460 55.556297 55.865478
56.168783 56.465852 56.756474 57.040307 57.317157 57.586704 57.848770 58.103061
58.349421 58.587584 58.817415 59.038678 59.251260 59.454954 59.649670 59.835232
60.011568 60.178530 60.336065 60.484053 60.622456 60.751176 60.870189 60.979419
61.078851 61.168428 61.248142 61.317950 61.377852 61.427816 61.467844 61.497918
61.518038 61.528197 61.528396 61.518636 61.498918 61.469253 61.429641 61.380104
61.320642 61.251289 61.172047 61.082964 60.984046 60.875356 60.756910 60.628787
60.491013 60.343690 60.186855 60.020635 59.845082 59.660350 59.466510 59.263743
59.052142 58.831916 58.603179 58.366173 58.121033 57.868029 57.607320 57.339204
57.063860 56.781611 56.492654 56.197336 55.895867 55.588613 55.275796 54.957795
54.634837 54.307310 53.975443 53.639628 53.300091 52.957220 52.611234 52.262516
51.911271 51.557870 51.202504 50.845527 50.487112 50.127592 49.767122 49.406010
49.044388 48.682542 48.320578 47.958755 47.597157 47.236015 46.875387 46.515478
46.156323 45.798096 45.440813 45.084618 44.729506 44.375595 44.022860 43.671394
43.321152 42.972202 42.624487 42.278048 41.932815 41.588809 41.245945 40.904225
40.563556 40.223920 39.885218 39.547413 39.210401 38.874133 38.538500 38.203438
37.868840 37.534630 37.200702 36.866970 36.533333
36.911111 37.283027 37.655040 38.027251 38.399748 38.772638 39.145998 39.519935
39.894514 40.269843 40.645970 41.023000 41.400966 41.779965 42.160012 42.541197
42.923513 43.307039 43.691747 44.077704 44.464854 44.853250 45.242812 45.633574
46.025428 46.418388 46.812319 47.207213 47.602903 47.999360 48.396386 48.793926
49.191752 49.589784 49.987763 50.385582 50.782953 51.179743 51.575635 51.970471
52.363906 52.755761 53.145665 53.533418 53.918630 54.301080 54.680364 55.056245
55.428308 55.796306 56.159819 56.518593 56.872208 57.220411 57.562787 57.899087
58.228910 58.552018 58.868024 59.176707 59.477703 59.770808 60.055687 60.332157
60.599913 60.858795 61.108532 61.348989 61.579928 61.801238 62.012715 62.214272
62.405736 62.587043 62.758049 62.918710 63.068909 63.208617 63.337744 63.456271
63.564130 63.661311 63.747765 63.823487 63.888443 63.942633 63.986033 64.018647
64.040460 64.051476 64.051691 64.041106 64.019727 63.987554 63.944604 63.890875
63.826395 63.751163 63.665221 63.568571 63.461270 63.343325 63.214812 63.075749
62.926230 62.766287 62.596040 62.415535 62.224919 62.024258 61.813730 61.593423
61.363546 61.124210 60.875658 60.618027 60.351593 60.076517 59.793108 59.501551
59.202186 58.895218 58.581016 58.259803 57.931970 57.597756 57.257569 56.911657
56.560442 56.204177 55.843288 55.478029 55.108826 54.735926 54.359751 53.980538
53.598696 53.214448 52.828186 52.440115 52.050607 51.659845 51.268177 50.875762
50.482921 50.089788 49.696656 49.303631 48.910978 48.518774 48.127254 47.736471
47.346627 46.957750 46.570012 46.183417 45.798106 45.414062 45.031396 44.650071
44.270171 43.891639 43.514534 43.138783 42.764420 42.391358 42.019608 41.649072
41.279738 40.911503 40.544332 40.178116 39.812804 39.448282 39.084484 38.721292
38.358629 37.996378 37.634447 37.272725 36.911111
37.288889 37.689635 38.090490 38.491556 38.892947 39.294753 39.697093 40.100044
40.503726 40.908201 41.313585 41.719925 42.127332 42.535833 42.945532 43.356436
43.768637 44.182119 44.596962 45.013124 45.430670 45.849531 46.269754 46.691241
47.114018 47.537957 47.963062 48.389172 48.816268 49.244155 49.672787 50.101937
50.531531 50.961307 51.391164 51.820807 52.250104 52.678729 53.106523 53.533128
53.958358 54.381826 54.803321 55.222434 55.638929 56.052377 56.462524 56.868924
57.271311 57.669229 58.062402 58.450370 58.832855 59.209400 59.579729 59.943397
60.300134 60.649512 60.991276 61.325020 61.650508 61.967362 62.275368 62.574181
62.863614 63.143355 63.413245 63.673011 63.922519 64.161534 64.389952 64.607570
64.814311 65.010008 65.194606 65.367968 65.530059 65.680771 65.820083 65.947914
66.064253 66.169039 66.262270 66.343902 66.413939 66.472349 66.519138 66.554288
66.577802 66.589673 66.589904 66.578495 66.555447 66.520771 66.474464 66.416549
66.347022 66.265918 66.173235 66.069021 65.953279 65.826076 65.687421 65.537403
65.376043 65.203453 65.019670 64.824836 64.619006 64.402352 64.174955 63.937019
63.688651 63.430093 63.161477 62.883083 62.595072 62.297760 61.991335 61.676148
61.352415 61.020518 60.680695 60.333358 59.978762 59.617342 59.249368 58.875291
58.495389 58.110123 57.719774 57.324807 56.925498 56.522310 56.115509 55.705548
55.292680 54.877343 54.459769 54.040376 53.619375 53.197158 52.773911 52.349999
51.925579 51.500984 51.076346 50.651964 50.227938 49.804538 49.381834 48.960060
48.539259 48.119632 47.701196 47.284116 46.868385 46.454137 46.041341 45.630101
45.220364 44.812204 44.405551 44.000451 43.596818 43.194672 42.793912 42.394536
41.996432 41.599575 41.203845 40.809198 40.415508 40.022712 39.630683 39.239340
38.848556 38.458238 38.068260 37.678517 37.288889
37.666667 38.096286 38.526020 38.955991 39.386306 39.817090 40.248437 40.680476
41.113285 41.546993 41.981660 42.417410 42.854287 43.292408 43.731792 44.172549
44.614675 45.058265 45.503291 45.949833 46.397834 46.847356 47.298311 47.750742
48.204528 48.659689 49.116071 49.573666 50.032288 50.491900 50.952279 51.413360
51.874882 52.336750 52.798667 53.260505 53.721933 54.182790 54.642710 55.101503
55.558769 56.014290 56.467637 56.918564 57.366617 57.811529 58.252824 58.690217
59.123219 59.551530 59.974655 60.392287 60.803929 61.209276 61.607837 61.999312
62.383227 62.759293 63.127059 63.486253 63.836453 64.177413 64.508741 64.830219
65.141494 65.442378 65.732558 66.011878 66.280064 66.536993 66.782431 67.016285
67.238360 67.448588 67.646813 67.832988 68.006990 68.168791 68.318297 68.455495
68.580313 68.692749 68.792752 68.880326 68.955435 69.018087 69.068258 69.105955
69.131166 69.143896 69.144142 69.131905 69.107192 69.069999 69.020344 68.958221
68.883656 68.796645 68.697228 68.585402 68.461223 68.324694 68.175893 68.014832
67.841612 67.656261 67.458909 67.249602 67.028502 66.795680 66.551333 66.295559
66.028594 65.750565 65.461751 65.162308 64.852555 64.532683 64.203049 63.863874
63.515554 63.158336 62.792651 62.418769 62.037149 61.648080 61.252043 60.849339
60.440464 60.025726 59.605627 59.180475 58.750773 58.316819 57.879110 57.437932
56.993767 56.546882 56.097739 55.646582 55.193848 54.739754 54.284708 53.828898
53.372698 52.916266 52.459943 52.003852 51.548299 51.093377 50.639353 50.186289
49.734415 49.283765 48.834532 48.386720 47.940488 47.495813 47.052821 46.611465
46.171838 45.733873 45.297630 44.863023 44.430086 43.998717 43.568922 43.140585
42.713688 42.288106 41.863798 41.440632 41.018545 40.597401 40.177120 39.757564
39.338637 38.920202 38.502148 38.084343 37.666667
38.044444 38.502975 38.961635 39.420545 39.879840 40.339630 40.800054 41.261205
41.723224 42.186189 42.650235 43.115423 43.581883 44.049652 44.518853 44.989499
45.461700 45.935443 46.410824 46.887801 47.366450 47.846700 48.328606 48.812063
49.297103 49.783585 50.271515 50.760714 51.251160 51.742636 52.235089 52.728262
53.222069 53.716213 54.210574 54.704817 55.198786 55.692107 56.184591 56.675826
57.165590 57.653438 58.139116 58.622150 59.102258 59.578939 60.051891 60.520591
60.984721 61.443746 61.897334 62.344948 62.786251 63.220710 63.647990 64.067570
64.479128 64.882161 65.276364 65.661264 66.036579 66.401869 66.756884 67.101222
67.434663 67.756853 68.067605 68.366609 68.653714 68.928655 69.191316 69.441475
69.679048 69.903853 70.115834 70.314848 70.500860 70.673761 70.833535 70.980098