# vtk DataFile Version 3.0
Steady-state temperature (Jacobi)
ASCII
DATASET STRUCTURED_POINTS
DIMENSIONS 181 181 1
ORIGIN 0.0 0.0 0.0
SPACING 0.05 0.05 1.0
POINT_DATA 32761
SCALARS Temperature float 1
LOOKUP_TABLE default
32.000000 32.000000 32.000000 32.000000 32.000000 32.000000 32.000000 32.000000
32.000000 32.000000 32.000000 32.000000 32.000000 32.000000 32.000000 32.000000
32.000000 32.000000 32.000000 32.000000 32.000000 32.000000 32.000000 32.000000
32.000000 32.000000 32.000000 32.000000 32.000000 32.000000 32.000000 32.000000
32.000000 32.000000 32.000000 32.000000 32.000000 32.000000 32.000000 32.000000
32.000000 32.000000 32.000000 32.000000 32.000000 32.000000 32.000000 32.000000
32.000000 32.000000 32.000000 32.000000 32.000000 32.000000 32.000000 32.000000
32.000000 32.000000 32.000000 32.000000 32.000000 32.000000 32.000000 32.000000
32.000000 32.000000 32.000000 32.000000 32.000000 32.000000 32.000000 32.000000
32.000000 32.000000 32.000000 32.000000 32.000000 32.000000 32.000000 32.000000
32.000000 32.000000 32.000000 32.000000 32.000000 32.000000 32.000000 32.000000
32.000000 32.000000 32.000000 32.000000 32.000000 32.000000 32.000000 32.000000
32.000000 32.000000 32.000000 32.000000 32.000000 32.000000 32.000000 32.000000
32.000000 32.000000 32.000000 32.000000 32.000000 32.000000 32.000000 32.000000
32.000000 32.000000 32.000000 32.000000 32.000000 32.000000 32.000000 32.000000
32.000000 32.000000 32.000000 32.000000 32.000000 32.000000 32.000000 32.000000
32.000000 32.000000 32.000000 32.000000 32.000000 32.000000 32.000000 32.000000
32.000000 32.000000 32.000000 32.000000 32.000000 32.000000 32.000000 32.000000
32.000000 32.000000 32.000000 32.000000 32.000000 32.000000 32.000000 32.000000
32.000000 32.000000 32.000000 32.000000 32.000000 32.000000 32.000000 32.000000
32.000000 32.000000 32.000000 32.000000 32.000000 32.000000 32.000000 32.000000
32.000000 32.000000 32.000000 32.000000 32.000000 32.000000 32.000000 32.000000
32.000000 32.000000 32.000000 32.000000 32.000000
32.377778 32.408910 32.440045 32.471188 32.502340 32.533507 32.564689 32.595892
32.627117 32.658367 32.689643 32.720949 32.752285 32.783653 32.815053 32.846486
32.877951 32.909448 32.940975 32.972531 33.004113 33.035718 33.067342 33.098981
33.130629 33.162282 33.193930 33.225569 33.257189 33.288781 33.320335 33.351841
33.383286 33.414660 33.445948 33.477137 33.508211 33.539157 33.569955 33.600592
33.631047 33.661305 33.691343 33.721145 33.750689 33.779957 33.808925 33.837575
33.865883 33.893830 33.921393 33.948551 33.975281 34.001563 34.027376 34.052698
34.077509 34.101790 34.125519 34.148679 34.171249 34.193215 34.214556 34.235258
34.255304 34.274682 34.293374 34.311371 34.328657 34.345223 34.361058 34.376152
34.390495 34.404082 34.416902 34.428951 34.440221 34.450708 34.460407 34.469314
34.477424 34.484737 34.491247 34.496953 34.501853 34.505946 34.509231 34.511706
34.513370 34.514225 34.514268 34.513501 34.511924 34.509537 34.506342 34.502339
34.497530 34.491917 34.485502 34.478286 34.470275 34.461469 34.451875 34.441494
34.430334 34.418399 34.405696 34.392231 34.378012 34.363047 34.347346 34.330919
34.313776 34.295928 34.277389 34.258171 34.238290 34.217758 34.196594 34.174812
34.152431 34.129468 34.105942 34.081872 34.057279 34.032181 34.006601 33.980559
33.954077 33.927175 33.899877 33.872202 33.844175 33.815814 33.787145 33.758184
33.728956 33.699478 33.669774 33.639861 33.609759 33.579484 33.549058 33.518494
33.487811 33.457023 33.426147 33.395194 33.364180 33.333115 33.302013 33.270882
33.239734 33.208577 33.177420 33.146269 33.115134 33.084016 33.052925 33.021861
32.990832 32.959837 32.928882 32.897965 32.867091 32.836257 32.805466 32.774715
32.744006 32.713334 32.682700 32.652101 32.621534 32.590997 32.560486 32.529998
32.499530 32.469078 32.438638 32.408206 32.377778
32.755556 32.817821 32.880093 32.942379 33.004687 33.067020 33.129388 33.191795
33.254247 33.316749 33.379305 33.441919 33.504595 33.567334 33.630139 33.693008
33.755944 33.818943 33.882004 33.945122 34.008293 34.071510 34.134767 34.198053
34.261360 34.324673 34.387983 34.451270 34.514523 34.577718 34.640841 34.703866
34.766773 34.829535 34.892129 34.954522 35.016690 35.078597 35.140215 35.201505
35.262437 35.322970 35.383070 35.442693 35.501805 35.560360 35.618321 35.675641
35.732282 35.788196 35.843345 35.897680 35.951164 36.003749 36.055397 36.106061
36.155705 36.204284 36.251763 36.298099 36.343260 36.387206 36.429906 36.471325
36.511434 36.550200 36.587600 36.623603 36.658188 36.691330 36.723009 36.753205
36.781902 36.809080 36.834728 36.858830 36.881377 36.902355 36.921757 36.939574
36.955799 36.970424 36.983447 36.994861 37.004664 37.012851 37.019420 37.024371
37.027701 37.029409 37.029497 37.027962 37.024808 37.020034 37.013642 37.005635
36.996015 36.984787 36.971954 36.957521 36.941494 36.923881 36.904686 36.883922
36.861596 36.837721 36.812307 36.785370 36.756924 36.726987 36.695574 36.662710
36.628411 36.592705 36.555613 36.517165 36.477386 36.436309 36.393963 36.350383
36.305602 36.259659 36.212586 36.164428 36.115219 36.065005 36.013822 35.961718
35.908730 35.854906 35.800286 35.744916 35.688837 35.632097 35.574732 35.516792
35.458311 35.399338 35.339907 35.280061 35.219835 35.159269 35.098395 35.037252
34.975867 34.914276 34.852505 34.790586 34.728541 34.666399 34.604179 34.541906
34.479597 34.417273 34.354947 34.292638 34.230355 34.168113 34.105920 34.043788
33.981720 33.919726 33.857808 33.795971 33.734216 33.672546 33.610958 33.549455
33.488031 33.426686 33.365415 33.304215 33.243079 33.182003 33.120979 33.060003
32.999065 32.938160 32.877278 32.816413 32.755556
33.133333 33.226735 33.320147 33.413580 33.507044 33.600550 33.694105 33.787721
33.881404 33.975164 34.069004 34.162934 34.256955 34.351074 34.445290 34.539607
34.634021 34.728534 34.823139 34.917833 35.012605 35.107451 35.202355 35.297308
35.392289 35.487287 35.582275 35.677238 35.772143 35.866971 35.961686 36.056261
36.150657 36.244841 36.338768 36.432404 36.525696 36.618605 36.711076 36.803063
36.894508 36.985361 37.075560 37.165051 37.253770 37.341660 37.428652 37.514691
37.599704 37.683635 37.766410 37.847972 37.928249 38.007184 38.084705 38.160757
38.235270 38.308191 38.379454 38.449008 38.516791 38.582755 38.646843 38.709013
38.769210 38.827397 38.883526 38.937562 38.989466 39.039206 39.086747 39.132064
39.175127 39.215914 39.254401 39.290570 39.324401 39.355880 39.384992 39.411727
39.436070 39.458016 39.477555 39.494681 39.509388 39.521671 39.531528 39.538955
39.543951 39.546515 39.546645 39.544343 39.539610 39.532447 39.522857 39.510843
39.496411 39.479563 39.460308 39.438652 39.414605 39.388174 39.359374 39.328215
39.294715 39.258886 39.220751 39.180326 39.137638 39.092708 39.045568 38.996243
38.944769 38.891178 38.835510 38.777801 38.718098 38.656442 38.592884 38.527470
38.460256 38.391291 38.320638 38.248348 38.174488 38.099111 38.022287 37.944073
37.864540 37.783745 37.701762 37.618649 37.534479 37.449309 37.363211 37.276241
37.188471 37.099954 37.010759 36.920936 36.830551 36.739650 36.648296 36.556532
36.464415 36.371983 36.279289 36.186368 36.093267 36.000015 35.906655 35.813211
35.719720 35.626203 35.532691 35.439199 35.345754 35.252367 35.159061 35.065841
34.972725 34.879716 34.786826 34.694056 34.601413 34.508895 34.416505 34.324239
34.232097 34.140072 34.048160 33.956352 33.864645 33.773025 33.681487 33.590018
33.498608 33.407247 33.315922 33.224622 33.133333
33.511111 33.635653 33.760209 33.884793 34.009419 34.134101 34.258851 34.383680
34.508602 34.633625 34.758760 34.884011 35.009390 35.134897 35.260539 35.386313
35.512225 35.638264 35.764434 35.890719 36.017118 36.143611 36.270190 36.396831
36.523520 36.650226 36.776931 36.903596 37.030197 37.156690 37.283043 37.409205
37.535138 37.660786 37.786102 37.911024 38.035500 38.159459 38.282845 38.405581
38.527604 38.648832 38.769199 38.888615 39.007012 39.124296 39.240393 39.355210
39.468670 39.580677 39.691152 39.800000 39.907143 40.012486 40.115951 40.217446
40.316896 40.414212 40.509323 40.602144 40.692608 40.780636 40.866167 40.949128
41.029463 41.107106 41.182008 41.254110 41.323369 41.389735 41.453170 41.513630
41.571086 41.625500 41.676847 41.725097 41.770230 41.812222 41.851058 41.886718
41.919191 41.948463 41.974525 41.997367 42.016983 42.033366 42.046513 42.056419
42.063082 42.066500 42.066674 42.063604 42.057290 42.047736 42.034945 42.018921
41.999670 41.977199 41.951515 41.922629 41.890550 41.855295 41.816875 41.775310
41.730616 41.682820 41.631940 41.578010 41.521053 41.461109 41.398208 41.332396
41.263709 41.192200 41.117913 41.040906 40.961231 40.878954 40.794130 40.706835
40.617130 40.525095 40.430796 40.334322 40.235741 40.135146 40.032610 39.928228
39.822077 39.714253 39.604834 39.493917 39.381581 39.267922 39.153017 39.036961
38.919828 38.801712 38.682682 38.562829 38.442217 38.320931 38.199033 38.076601
37.953691 37.830375 37.706703 37.582741 37.458532 37.334135 37.209587 37.084941
36.960226 36.835488 36.710751 36.586053 36.461413 36.336861 36.212411 36.088087
35.963896 35.839858 35.715975 35.592260 35.468711 35.345336 35.222129 35.099094
34.976221 34.853509 34.730946 34.608527 34.486239 34.364073 34.242014 34.120049
33.998164 33.876344 33.754572 33.632833 33.511111
33.888889 34.044576 34.200281 34.356022 34.511816 34.667681 34.823631 34.979684
35.135851 35.292149 35.448585 35.605174 35.761920 35.918833 36.075913 36.233167
36.390589 36.548183 36.705934 36.863843 37.021889 37.180065 37.338345 37.496715
37.655142 37.813604 37.972059 38.130480 38.288817 38.447033 38.605069 38.762883
38.920405 39.077586 39.234348 39.390632 39.546353 39.701444 39.855812 40.009383
40.162056 40.313750 40.464358 40.613794 40.761946 40.908721 41.054003 41.197697
41.339683 41.479865 41.618120 41.754352 41.888440 42.020286 42.149772 42.276802
42.401263 42.523062 42.642090 42.758260 42.871469 42.981637 43.088668 43.192490
43.293013 43.390174 43.483894 43.574116 43.660770 43.743807 43.823168 43.898811
43.970687 44.038760 44.102988 44.163346 44.219798 44.272323 44.320894 44.365497
44.406108 44.442718 44.475309 44.503876 44.528405 44.548893 44.565332 44.577719
44.586051 44.590325 44.590542 44.586702 44.578807 44.566859 44.550863 44.530824
44.506749 44.478646 44.446525 44.410397 44.370279 44.326182 44.278129 44.226137
44.170234 44.110443 44.046798 43.979328 43.908077 43.833078 43.754384 43.672038
43.586099 43.496618 43.403666 43.307300 43.207601 43.104633 42.998486 42.889234
42.776973 42.661784 42.543773 42.423025 42.299652 42.173745 42.045421 41.914775
41.781927 41.646975 41.510040 41.371220 41.230639 41.088392 40.944601 40.799360
40.652789 40.504978 40.356041 40.206064 40.055156 39.903398 39.750890 39.597708
39.443945 39.289667 39.134961 38.979886 38.824520 38.668912 38.513133 38.357224
38.201247 38.045234 37.889239 37.733287 37.577422 37.421663 37.266045 37.110580
36.955295 36.800196 36.645303 36.490616 36.336147 36.181893 36.027858 35.874035
35.720423 35.567009 35.413789 35.260747 35.107875 34.955152 34.802568 34.650101
34.497736 34.345451 34.193229 34.041049 33.888889
34.266667 34.453506 34.640367 34.827271 35.014240 35.201294 35.388455 35.575738
35.763164 35.950745 36.138500 36.326436 36.514570 36.702902 36.891445 37.080195
37.269158 37.458324 37.647694 37.837249 38.026985 38.216873 38.406902 38.597036
38.787255 38.977513 39.167782 39.358006 39.548147 39.738139 39.927937 40.117462
40.306659 40.495440 40.683739 40.871459 41.058524 41.244827 41.430282 41.614773
41.798207 41.980458 42.161425 42.340976 42.519003 42.695367 42.869956 43.042627
43.213264 43.381722 43.547881 43.711597 43.872751 44.031199 44.186823 44.339484
44.489068 44.635440 44.778491 44.918094 45.054147 45.186532 45.315154 45.439904
45.560698 45.677438 45.790048 45.898441 46.002553 46.102306 46.197647 46.288509
46.374849 46.456610 46.533757 46.606244 46.674044 46.737120 46.795450 46.849007
46.897774 46.941730 46.980864 47.015160 47.044612 47.069209 47.088945 47.103816
47.113817 47.118948 47.119208 47.114597 47.105117 47.090773 47.071567 47.047508
47.018601 46.984859 46.946289 46.902910 46.854733 46.801782 46.744073 46.681636
46.614494 46.542685 46.466238 46.385200 46.299607 46.209518 46.114977 46.016052
45.912798 45.805293 45.693603 45.577818 45.458011 45.334285 45.206723 45.075437
44.940521 44.802096 44.660263 44.515153 44.366873 44.215561 44.061330 43.904323
43.744656 43.582476 43.417901 43.251078 43.082126 42.911191 42.738391 42.563869
42.387737 42.210137 42.031175 41.850986 41.669669 41.487353 41.304130 41.120118
40.935401 40.750090 40.564257 40.378004 40.191394 40.004517 39.817428 39.630205
39.442893 39.255561 39.068244 38.880999 38.693854 38.506854 38.320019 38.133385
37.946963 37.760781 37.574842 37.389164 37.203746 37.018597 36.833709 36.649087
36.464714 36.280591 36.096697 35.913026 35.729555 35.546271 35.363151 35.180178
34.997326 34.814573 34.631896 34.449269 34.266667
34.644444 34.862442 35.080466 35.298542 35.516694 35.734949 35.953327 36.171854
36.390547 36.609429 36.828513 37.047819 37.267353 37.487132 37.707155 37.927433
38.147958 38.368736 38.589750 38.810998 39.032454 39.254108 39.475924 39.697884
39.919939 40.142064 40.364197 40.586303 40.808308 41.030166 41.251791 41.473126
41.694072 41.914560 42.134481 42.353752 42.572253 42.789891 43.006533 43.222076
43.436377 43.649322 43.860760 44.070568 44.278587 44.484687 44.688704 44.890501
45.089911 45.286793 45.480979 45.672327 45.860667 46.045861 46.227740 46.406171
46.580989 46.752066 46.919245 47.082405 47.241399 47.396114 47.546415 47.692198
47.833341 47.969751 48.101319 48.227965 48.349591 48.466130 48.577499 48.683639
48.784481 48.879979 48.970075 49.054732 49.133903 49.207560 49.275666 49.338200
49.395135 49.446455 49.492139 49.532178 49.566558 49.595270 49.618307 49.635665
49.647339 49.653328 49.653630 49.648246 49.637180 49.620434 49.598015 49.569927
49.536182 49.496788 49.451761 49.401112 49.344864 49.283034 49.215652 49.142739
49.064334 48.980467 48.891187 48.796531 48.696559 48.591319 48.480883 48.365309
48.244682 48.119072 47.988577 47.853278 47.713287 47.568698 47.419634 47.266199
47.108532 46.946745 46.780987 46.611381 46.438084 46.261226 46.080973 45.897458
45.710853 45.521296 45.328960 45.133983 44.936540 44.736767 44.534838 44.330886
44.125079 43.917546 43.708448 43.497907 43.286077 43.073071 42.859033 42.644067
42.428307 42.211845 41.994803 41.777263 41.559336 41.341091 41.122625 40.903999
40.685295 40.466563 40.247874 40.029265 39.810795 39.592492 39.374404 39.156547
38.938958 38.721646 38.504636 38.287929 38.071541 37.855465 37.639709 37.424259
37.209116 36.994260 36.779684 36.565365 36.351290 36.137432 35.923772 35.710282
35.496938 35.283710 35.070572 34.857493 34.644444
35.022222 35.271387 35.520582 35.769837 36.019182 36.268645 36.518255 36.768034
37.018013 37.268206 37.518642 37.769330 38.020293 38.271535 38.523072 38.774899
39.027029 39.279445 39.532152 39.785125 40.038359 40.291819 40.545488 40.799321
41.053290 41.307336 41.561422 41.815473 42.069441 42.323237 42.576799 42.830026
43.082841 43.335129 43.586801 43.837726 44.087803 44.336888 44.584866 44.831581
45.076907 45.320674 45.562747 45.802947 46.041128 46.277104 46.510721 46.741787
46.970144 47.195596 47.417982 47.637104 47.852803 48.064882 48.273184 48.477518
48.677731 48.873640 49.065098 49.251933 49.434008 49.611161 49.783269 49.950181
50.111787 50.267953 50.418581 50.563551 50.702781 50.836166 50.963636 51.085104
51.200511 51.309786 51.412880 51.509736 51.600318 51.684579 51.762492 51.834020
51.899146 51.957841 52.010092 52.055881 52.095199 52.128032 52.154377 52.174224
52.187573 52.194419 52.194763 52.188606 52.175950 52.156800 52.131159 52.099038
52.060442 52.015389 51.963886 51.905956 51.841614 51.770889 51.693801 51.610389
51.520680 51.424725 51.322560 51.214247 51.099833 50.979393 50.852986 50.720702
50.582614 50.438825 50.289423 50.134526 49.974235 49.808686 49.637990 49.462300
49.281740 49.096474 48.906639 48.712411 48.513936 48.311399 48.104954 47.894794
47.681078 47.464002 47.243728 47.020456 46.794345 46.565594 46.334361 46.100841
45.865187 45.627587 45.388187 45.147168 44.904666 44.660851 44.415849 44.169818
43.922872 43.675158 43.426776 43.177859 42.928493 42.678798 42.428847 42.178744
41.928550 41.678354 41.428205 41.178177 40.928307 40.678655 40.429246 40.180127
39.931313 39.682839 39.434709 39.186947 38.939548 38.692525 38.445867 38.199575
37.953633 37.708033 37.462753 37.217778 36.973081 36.728642 36.484429 36.240417
35.996571 35.752864 35.509259 35.265723 35.022222
35.400000 35.680340 35.960714 36.241159 36.521705 36.802389 37.083239 37.364288
37.645561 37.927089 38.208889 38.490988 38.773396 39.056136 39.339207 39.622627
39.906386 40.190492 40.474925 40.759684 41.044737 41.330072 41.615644 41.901431
42.187372 42.473434 42.759539 43.045642 43.331650 43.617502 43.903090 44.188339
44.473124 44.757354 45.040889 45.323623 45.605399 45.886096 46.165544 46.443607
46.720100 46.994875 47.267734 47.538519 47.807020 48.073068 48.336449 48.596985
48.854454 49.108677 49.359428 49.606525 49.849744 50.088905 50.323787 50.554213
50.779971 51.000891 51.216770 51.427447 51.632732 51.832478 52.026509 52.214691
52.396864 52.572909 52.742686 52.906090 53.062998 53.213322 53.356956 53.493829
53.623851 53.746965 53.863097 53.972203 54.074225 54.169129 54.256869 54.337422
54.410752 54.476844 54.535672 54.587226 54.631488 54.668451 54.698106 54.720449
54.735473 54.743179 54.743565 54.736632 54.722383 54.700822 54.671956 54.635791
54.592339 54.541610 54.483622 54.418388 54.345937 54.266285 54.179470 54.085518
53.984477 53.876382 53.761293 53.639258 53.510351 53.374633 53.232193 53.083106
52.927480 52.765404 52.597004 52.422385 52.241690 52.055040 51.862597 51.664495
51.460913 51.252000 51.037947 50.818917 50.595113 50.366708 50.133915 49.896913
49.655923 49.411128 49.162753 48.910981 48.656038 48.398106 48.137408 47.874122
47.608464 47.340604 47.070753 46.799069 46.525752 46.250951 45.974852 45.697590
45.419337 45.140216 44.860382 44.579943 44.299040 44.017763 43.736238 43.454541
43.172779 42.891014 42.609338 42.327798 42.046470 41.765386 41.484608 41.204157
40.924079 40.644382 40.365101 40.086232 39.807797 39.529785 39.252205 38.975037
38.698280 38.421910 38.145914 37.870262 37.594936 37.319899 37.045127 36.770581
36.496230 36.222033 35.947956 35.673958 35.400000
35.777778 36.089301 36.400864 36.712505 37.024265 37.336178 37.648285 37.960613
38.273203 38.586076 38.899268 39.212792 39.526680 39.840937 40.155587 40.470624
40.786064 41.101892 41.418113 41.734699 42.051643 42.368904 42.686463 43.004264
43.322274 43.640420 43.958657 44.276892 44.595066 44.913068 45.230822 45.548199
45.865107 46.181399 46.496965 46.811639 47.125294 47.437749 47.748860 48.058427
48.366292 48.672241 48.976101 49.277644 49.576687 49.872991 50.166361 50.456552
50.743364 51.026544 51.305889 51.581147 51.852112 52.118536 52.380217 52.636911
52.888423 53.134519 53.375014 53.609688 53.838366 54.060845 54.276965 54.486541
54.689429 54.885463 55.074519 55.256449 55.431148 55.598488 55.758381 55.910721
56.055436 56.192438 56.321671 56.443064 56.556575 56.662148 56.759753 56.849348
56.930911 57.004412 57.069836 57.127161 57.176380 57.217479 57.250452 57.275291
57.291995 57.300560 57.300987 57.293277 57.277432 57.253457 57.221357 57.181143
57.132820 57.076407 57.011913 56.939363 56.858773 56.770176 56.673596 56.569077
56.456653 56.336380 56.208304 56.072499 55.929020 55.777960 55.619391 55.453424
55.280147 55.099691 54.912162 54.717711 54.516463 54.308589 54.094230 53.873577
53.646790 53.414075 53.175607 52.931609 52.682268 52.427819 52.168459 51.904433
51.635944 51.363243 51.086537 50.806079 50.522075 50.234777 49.944387 49.651152
49.355268 49.056974 48.756456 48.453942 48.149606 47.843663 47.536273 47.227635
46.917894 46.607234 46.295781 45.983702 45.671107 45.358143 45.044904 44.731519
44.418063 44.104649 43.791334 43.478212 43.165327 42.852755 42.540523 42.228691
41.917275 41.606318 41.295822 40.985816 40.676293 40.367268 40.058723 39.750661
39.443056 39.135901 38.829164 38.522826 38.216849 37.911209 37.605862 37.300777
36.995909 36.691220 36.386664 36.082199 35.777778
36.155556 36.498271 36.841030 37.183880 37.526860 37.870017 38.213388 38.557016
38.900932 39.245177 39.589773 39.934757 40.280142 40.625959 40.972209 41.318916
41.666069 42.013681 42.361729 42.710214 43.059098 43.408371 43.757977 44.107891
44.458042 44.808388 45.158839 45.509338 45.859774 46.210072 46.560103 46.909772
47.258928 47.607460 47.955197 48.302005 48.647695 48.992116 49.335058 49.676351
50.015769 50.353126 50.688177 51.020724 51.350509 51.677318 52.000885 52.320988
52.637351 52.949746 53.257896 53.561569 53.860488 54.154424 54.443104 54.726305
55.003763 55.275264 55.540555 55.799437 56.051673 56.297079 56.535438 56.766583
56.990317 57.206495 57.414942 57.615533 57.808116 57.992586 58.168814 58.336716
58.496183 58.647150 58.789529 58.923269 59.048303 59.164592 59.272085 59.370757
59.460568 59.541501 59.613530 59.676645 59.730826 59.776069 59.812363 59.839704
59.858088 59.867514 59.867982 59.859492 59.842049 59.815654 59.780317 59.736041
59.682842 59.620727 59.549717 59.469825 59.381081 59.283503 59.177133 59.062000
58.938158 58.805647 58.664538 58.514883 58.356772 58.190275 58.015501 57.832538
57.641516 57.442544 57.235774 57.021335 56.799404 56.570127 56.333706 56.090306
55.840148 55.583419 55.320357 55.051162 54.776092 54.495358 54.209230 53.917930
53.621736 53.320874 53.015628 52.706226 52.392951 52.076030 51.755741 51.432306
51.105997 50.777024 50.445648 50.112069 49.776534 49.439226 49.100377 48.760155
48.418772 48.076378 47.733166 47.389268 47.044856 46.700042 46.354979 46.009759
45.664514 45.319318 44.974282 44.629463 44.284953 43.940789 43.597046 43.253746
42.910945 42.568652 42.226905 41.885700 41.545060 41.204970 40.865439 40.526440
40.187972 39.850000 39.512510 39.175460 38.838826 38.502563 38.166637 37.831000
37.495612 37.160421 36.825382 36.490443 36.155556
36.533333 36.907248 37.281213 37.655277 38.029491 38.403899 38.778552 39.153487
39.528754 39.904381 40.280414 40.656873 41.033796 41.411193 41.789094 42.167498
42.546425 42.925857 43.305806 43.686238 44.067149 44.448492 44.830246 45.212345
45.594753 45.977383 46.360183 46.743043 47.125893 47.508602 47.891078 48.273169
48.654761 49.035680 49.415791 49.794897 50.172843 50.549409 50.924419 51.297633
51.668856 52.037827 52.404336 52.768104 53.128905 53.486447 53.840492 54.190739
54.536938 54.878783 55.216021 55.548344 55.875496 56.197173 56.513125 56.823053
57.126716 57.423828 57.714160 57.997442 58.273462 58.541969 58.802770 59.055639
59.300401 59.536856 59.764854 59.984218 60.194822 60.396514 60.589191 60.772727
60.947040 61.112027 61.267626 61.413754 61.550367 61.677401 61.794824 61.902591
62.000680 62.089058 62.167714 62.236623 62.295780 62.345171 62.384792 62.414637
62.434704 62.444991 62.445498 62.436228 62.417181 62.388365 62.349781 62.301441
62.243351 62.175527 62.097978 62.010732 61.913801 61.807223 61.691020 61.565244
61.429926 61.285135 61.130916 60.967357 60.794520 60.612512 60.421418 60.221366
60.012462 59.794861 59.568690 59.334129 59.091330 58.840498 58.581807 58.315487
58.041732 57.760797 57.472894 57.178298 56.877237 56.570000 56.256831 55.938030
55.613848 55.284593 54.950520 54.611940 54.269108 53.922333 53.571863 53.218003
52.860992 52.501123 52.138624 51.773774 51.406785 51.037921 50.667374 50.295390
49.922141 49.547852 49.172675 48.796812 48.420395 48.043602 47.666545 47.289377
46.912190 46.535116 46.158224 45.781625 45.405370 45.029547 44.654190 44.279366
43.905092 43.531419 43.158346 42.785907 42.414089 42.042908 41.672340 41.302387
40.933016 40.564213 40.195939 39.828169 39.460855 39.093964 38.727443 38.361251
37.995331 37.629635 37.264107 36.898692 36.533333
36.911111 37.316232 37.721409 38.126698 38.532151 38.937825 39.343766 39.750030
40.156656 40.563695 40.971177 41.379147 41.787626 42.196651 42.606229 43.016389
43.427122 43.838448 44.250340 44.662805 45.075799 45.489312 45.903283 46.317684
46.732433 47.147483 47.562730 47.978107 48.393486 48.808779 49.223834 49.638540
50.052719 50.466238 50.878894 51.290531 51.700920 52.109882 52.517166 52.922569
53.325817 53.726687 54.124887 54.520174 54.912237 55.300819 55.685596 56.066299
56.442593 56.814203 57.180790 57.542073 57.897715 58.247437 58.590909 58.927857
59.257962 59.580963 59.896557 60.204498 60.504503 60.796348 61.079773 61.354577
61.620526 61.877445 62.125127 62.363425 62.592160 62.811209 63.020423 63.219705
63.408932 63.588027 63.756896 63.915481 64.063707 64.201537 64.328914 64.445812
64.552193 64.648041 64.733330 64.808051 64.872186 64.925735 64.968685 65.001038
65.022788 65.033936 65.034483 65.024429 65.003779 64.972534 64.930702 64.878286
64.815300 64.741749 64.657654 64.563025 64.457894 64.342277 64.216218 64.079745
63.932916 63.775774 63.608396 63.430842 63.243210 63.045580 62.838076 62.620799
62.393902 62.157510 61.911804 61.656934 61.393109 61.120508 60.839367 60.549888
60.252335 59.946933 59.633971 59.313692 58.986405 58.652370 58.311912 57.965303
57.612879 57.254917 56.891759 56.523686 56.151039 55.774096 55.393192 55.008598
54.620641 54.229577 53.835722 53.439316 53.040655 52.639963 52.237516 51.833515
51.428216 51.021797 50.614487 50.206445 49.797873 49.388906 48.979723 48.570432
48.161189 47.752081 47.343236 46.934720 46.526639 46.119038 45.711999 45.305549
44.899750 44.494609 44.090169 43.686423 43.283395 42.881064 42.479438 42.078482
41.678192 41.278523 40.879454 40.480936 40.082936 39.685398 39.288279 38.891518
38.495065 38.098857 37.702838 37.306943 36.911111
37.288889 37.725222 38.161617 38.598135 39.034839 39.471783 39.909031 40.346630
40.784640 41.223099 41.662063 42.101561 42.541639 42.982313 43.423623 43.865569
44.308178 44.751436 45.195356 45.639904 46.085081 46.530830 46.977135 47.423919
47.871144 48.318711 48.766560 49.214569 49.662654 50.110665 50.558496 51.005971
51.452957 51.899250 52.344693 52.789055 53.232151 53.673723 54.113564 54.551388
54.986964 55.419983 55.850191 56.277259 56.700915 57.120812 57.536660 57.948102
58.354836 58.756496 59.152775 59.543303 59.927774 60.305820 60.677140 61.041376
61.398237 61.747379 62.088528 62.421361 62.745622 63.061015 63.367308 63.664233
63.951584 64.229125 64.496680 64.754043 65.001068 65.237581 65.463463 65.678573
65.882818 66.076084 66.258303 66.429388 66.589289 66.737943 66.875317 67.001364
67.116067 67.219394 67.311335 67.391871 67.460997 67.518703 67.564989 67.599849
67.623284 67.635294 67.635879 67.625042 67.602783 67.569109 67.524020 67.467527
67.399631 67.320349 67.229686 67.127666 67.014302 66.889628 66.753667 66.606468
66.448065 66.278529 66.097909 65.906297 65.703764 65.490428 65.266382 65.031774
64.786724 64.531409 64.265977 63.990639 63.705571 63.411016 63.107179 62.794332
62.472708 62.142608 61.804290 61.458078 61.104249 60.743150 60.375073 60.000379
59.619372 59.232420 58.839832 58.441981 58.039174 57.631781 57.220102 56.804501
56.385266 55.962746 55.537214 55.109004 54.678368 54.245617 53.810984 53.374756
52.937140 52.498398 52.058713 51.618318 51.177371 50.736077 50.294568 49.853022
49.411546 48.970289 48.529335 48.088807 47.648763 47.209305 46.770467 46.332327
45.894901 45.458244 45.022353 44.587263 44.152956 43.719447 43.286706 42.854730
42.423476 41.992929 41.563034 41.133762 40.705052 40.276863 39.849130 39.421800
38.994805 38.568086 38.141571 37.715195 37.288889
37.666667 38.134216 38.601833 39.069588 39.537545 40.005773 40.474330 40.943283
41.412683 41.882592 42.353050 42.824113 43.295808 43.768182 44.241249 44.715045
45.189565 45.664835 46.140829 46.617558 47.094977 47.573077 48.051792 48.531093
49.010887 49.491126 49.971691 50.452508 50.933432 51.414362 51.895124 52.375592
52.855562 53.334878 53.813307 54.290665 54.766689 55.241167 55.713807 56.184370
56.652535 57.118039 57.580536 58.039739 58.495282 58.946858 59.394084 59.836637
60.274123 60.706208 61.132493 61.552640 61.966248 62.372983 62.772451 63.164326
63.548227 63.923843 64.290812 64.648844 64.997604 65.336824 65.666200 65.985495
66.294435 66.592816 66.880399 67.157013 67.422455 67.676585 67.919235 68.150296
68.369634 68.577166 68.772790 68.956446 69.128058 69.287587 69.434979 69.570211
69.693246 69.804074 69.902672 69.989036 70.063152 70.125024 70.174643 70.212013
70.237132 70.250002 70.250625 70.239002 70.215136 70.179027 70.130683 70.070103
69.997297 69.912267 69.815032 69.705596 69.583987 69.450219 69.304334 69.146355
68.976343 68.794338 68.600422 68.394655 68.177146 67.947978 67.707291 67.455196
67.191864 66.917439 66.632126 66.336101 66.029604 65.712843 65.386095 65.049598
64.703663 64.348555 63.984616 63.612137 63.231483 62.842967 62.446973 62.043828
61.633929 61.217613 60.795283 60.367276 59.933998 59.495781 59.053024 58.606048
58.155242 57.700911 57.243425 56.783072 56.320200 55.855072 55.388013 54.919259
54.449108 53.977770 53.505511 53.032513 52.559015 52.085169 51.611182 51.137179
50.663337 50.189755 49.716579 49.243882 48.771785 48.300334 47.829623 47.359678
46.890567 46.422295 45.954908 45.488393 45.022775 44.558024 44.094146 43.631098
43.168868 42.707402 42.246673 41.786619 41.327197 40.868339 40.409993 39.952083
39.494548 39.037311 38.580303 38.123446 37.666667
38.044444 38.543211 39.042054 39.541045 40.040264 40.539775 41.039657 41.539968
42.040782 42.542147 43.044131 43.546772 44.050128 44.554223 45.059106 45.564782
46.071287 46.578610 47.086770 47.595734 48.105506 48.616028 49.127283 49.639189
50.151706 50.664725 51.178182 51.691937 52.205900 52.719901 53.233821 53.747459
54.260665 54.773205 55.284899 55.795481 56.304738 56.812372 57.318142 57.821716
58.322824 58.821107 59.316265 59.807916 60.295735 60.779318 61.258321 61.732323
62.200967 62.663821 63.120518 63.570624 64.013772 64.449529 64.877535 65.297368
65.708681 66.111071 66.504208 66.887717 67.261292 67.624589 67.977334 68.319216
68.649995 68.969400 69.277227 69.573243 69.857281 70.129147 70.388710 70.635813
70.870357 71.092220 71.301333 71.497604 71.680987 71.851417 72.008868 72.153297