# vtk DataFile Version 3.0
Steady-state temperature (Jacobi)
ASCII
DATASET STRUCTURED_POINTS
DIMENSIONS 181 181 1
ORIGIN 0.0 0.0 0.0
SPACING 0.05 0.05 1.0
POINT_DATA 32761
SCALARS Temperature float 1
LOOKUP_TABLE default
32.000000 32.000000 32.000000 32.000000 32.000000 32.000000 32.000000 32.000000
32.000000 32.000000 32.000000 32.000000 32.000000 32.000000 32.000000 32.000000
32.000000 32.000000 32.000000 32.000000 32.000000 32.000000 32.000000 32.000000
32.000000 32.000000 32.000000 32.000000 32.000000 32.000000 32.000000 32.000000
32.000000 32.000000 32.000000 32.000000 32.000000 32.000000 32.000000 32.000000
32.000000 32.000000 32.000000 32.000000 32.000000 32.000000 32.000000 32.000000
32.000000 32.000000 32.000000 32.000000 32.000000 32.000000 32.000000 32.000000
32.000000 32.000000 32.000000 32.000000 32.000000 32.000000 32.000000 32.000000
32.000000 32.000000 32.000000 32.000000 32.000000 32.000000 32.000000 32.000000
32.000000 32.000000 32.000000 32.000000 32.000000 32.000000 32.000000 32.000000
32.000000 32.000000 32.000000 32.000000 32.000000 32.000000 32.000000 32.000000
32.000000 32.000000 32.000000 32.000000 32.000000 32.000000 32.000000 32.000000
32.000000 32.000000 32.000000 32.000000 32.000000 32.000000 32.000000 32.000000
32.000000 32.000000 32.000000 32.000000 32.000000 32.000000 32.000000 32.000000
32.000000 32.000000 32.000000 32.000000 32.000000 32.000000 32.000000 32.000000
32.000000 32.000000 32.000000 32.000000 32.000000 32.000000 32.000000 32.000000
32.000000 32.000000 32.000000 32.000000 32.000000 32.000000 32.000000 32.000000
32.000000 32.000000 32.000000 32.000000 32.000000 32.000000 32.000000 32.000000
32.000000 32.000000 32.000000 32.000000 32.000000 32.000000 32.000000 32.000000
32.000000 32.000000 32.000000 32.000000 32.000000 32.000000 32.000000 32.000000
32.000000 32.000000 32.000000 32.000000 32.000000 32.000000 32.000000 32.000000
32.000000 32.000000 32.000000 32.000000 32.000000 32.000000 32.000000 32.000000
32.000000 32.000000 32.000000 32.000000 32.000000
32.377778 32.386518 32.395285 32.404109 32.413012 32.422030 32.431178 32.440495
32.449993 32.459713 32.469660 32.479880 32.490372 32.501182 32.512304 32.523786
32.535617 32.547845 32.560451 32.573486 32.586925 32.600818 32.615133 32.629921
32.645143 32.660850 32.676995 32.693630 32.710700 32.728257 32.746239 32.764696
32.783561 32.802881 32.822584 32.842714 32.863195 32.884067 32.905251 32.926784
32.948580 32.970677 32.992985 33.015538 33.038242 33.061131 33.084108 33.107204
33.130321 33.153489 33.176608 33.199705 33.222682 33.245566 33.268257 33.290781
33.313042 33.335063 33.356752 33.378131 33.399110 33.419713 33.439852 33.459551
33.478727 33.497403 33.515503 33.533047 33.549967 33.566282 33.581927 33.596925
33.611215 33.624817 33.637679 33.649820 33.661194 33.671817 33.681651 33.690710
33.698961 33.706417 33.713052 33.718875 33.723868 33.728037 33.731367 33.733866
33.735523 33.736341 33.736318 33.735454 33.733751 33.731206 33.727828 33.723612
33.718572 33.712700 33.706016 33.698510 33.690208 33.681097 33.671211 33.660533
33.649104 33.636906 33.623986 33.610324 33.595974 33.580915 33.565205 33.548826
33.531840 33.514228 33.496060 33.477314 33.458067 33.438296 33.418084 33.397407
33.376353 33.354899 33.333135 33.311038 33.288702 33.266102 33.243336 33.220379
33.197329 33.174160 33.150972 33.127737 33.104555 33.081397 33.058361 33.035417
33.012662 32.990063 32.967715 32.945583 32.923758 32.902203 32.881006 32.860127
32.839649 32.819531 32.799851 32.780564 32.761744 32.743344 32.725431 32.707958
32.690985 32.674463 32.658447 32.642885 32.627826 32.613219 32.599104 32.585431
32.572232 32.559458 32.547135 32.535212 32.523710 32.512580 32.501835 32.491427
32.481363 32.471596 32.462129 32.452916 32.443953 32.435197 32.426640 32.418240
32.409983 32.401833 32.393769 32.385759 32.377778
32.755556 32.773057 32.790615 32.808280 32.826116 32.844163 32.862493 32.881136
32.900171 32.919616 32.939555 32.959997 32.981029 33.002648 33.024948 33.047909
33.071630 33.096080 33.121358 33.147420 33.174369 33.202145 33.230851 33.260416
33.290941 33.322342 33.354720 33.387976 33.422209 33.457309 33.493370 33.530269
33.568100 33.606726 33.646237 33.686484 33.727553 33.769286 33.811763 33.854817
33.898524 33.942706 33.987436 34.032530 34.078056 34.123822 34.169893 34.216075
34.262426 34.308750 34.355103 34.401288 34.447356 34.493111 34.538605 34.583642
34.628271 34.672303 34.715783 34.758529 34.800586 34.841778 34.882150 34.921533
34.959973 34.997311 35.033591 35.068666 35.102579 35.135194 35.166553 35.196533
35.225173 35.252364 35.278142 35.302410 35.325204 35.346438 35.366145 35.384251
35.400785 35.415688 35.428983 35.440623 35.450627 35.458959 35.465633 35.470627
35.473947 35.475583 35.475537 35.473809 35.470397 35.465311 35.458543 35.450116
35.440017 35.428281 35.414887 35.399884 35.383248 35.365038 35.345225 35.323883
35.300978 35.276597 35.250703 35.223394 35.194632 35.164529 35.133043 35.100298
35.066254 35.031044 34.994626 34.957148 34.918566 34.879039 34.838521 34.797181
34.754975 34.712079 34.668448 34.624265 34.579485 34.534297 34.488654 34.442751
34.396537 34.350210 34.303718 34.257259 34.210778 34.164472 34.118284 34.072407
34.026781 33.981595 33.936783 33.892531 33.848768 33.805671 33.763165 33.721421
33.680357 33.640135 33.600669 33.562110 33.524368 33.487582 33.451660 33.416729
33.382691 33.349661 33.317541 33.286431 33.256231 33.227029 33.198723 33.171387
33.144918 33.119379 33.094666 33.070829 33.047764 33.025509 33.003964 32.983150
32.962972 32.943440 32.924460 32.906031 32.888065 32.870548 32.853397 32.836588
32.820044 32.803730 32.787577 32.771539 32.755556
33.133333 33.159640 33.186027 33.212586 33.239383 33.266524 33.294057 33.322099
33.350684 33.379937 33.409876 33.440632 33.472207 33.504739 33.538210 33.572765
33.608367 33.645164 33.683100 33.722326 33.762766 33.804572 33.847649 33.892148
33.937954 33.985218 34.033802 34.083858 34.135227 34.188057 34.242170 34.297709
34.354479 34.412616 34.471907 34.532483 34.594115 34.656927 34.720674 34.785472
34.851065 34.917561 34.984691 35.052558 35.120882 35.189760 35.258903 35.328404
35.397968 35.467681 35.537247 35.606748 35.675886 35.744738 35.813012 35.880781
35.947756 36.014008 36.079257 36.143571 36.206681 36.268654 36.329232 36.388480
36.446156 36.502324 36.556756 36.609516 36.660394 36.709450 36.756493 36.801583
36.844544 36.885436 36.924102 36.960598 36.994785 37.026716 37.056271 37.083496
37.108293 37.130701 37.150639 37.168140 37.183141 37.195669 37.205677 37.213185
37.218164 37.220623 37.220555 37.217957 37.212840 37.205194 37.195045 37.182376
37.167232 37.149586 37.129500 37.106943 37.081993 37.054612 37.024898 36.992805
36.958452 36.921786 36.882947 36.841877 36.798734 36.753458 36.706226 36.656975
36.605900 36.552937 36.498299 36.441922 36.384033 36.324568 36.263771 36.201577
36.138243 36.073703 36.008228 35.941749 35.874548 35.806554 35.738056 35.668982
35.599626 35.529911 35.460137 35.390221 35.320462 35.250776 35.181456 35.112414
35.043938 34.975933 34.908682 34.842081 34.776404 34.711540 34.647752 34.584923
34.523300 34.462761 34.403537 34.345500 34.288865 34.233497 34.179594 34.127015
34.075940 34.026224 33.978027 33.931200 33.885885 33.841929 33.799454 33.758307
33.718590 33.680148 33.643063 33.607183 33.572571 33.539074 33.506737 33.475412
33.445124 33.415729 33.387235 33.359505 33.332528 33.306173 33.280415 33.255130
33.230277 33.205743 33.181470 33.157358 33.133333
33.511111 33.546285 33.581574 33.617076 33.652923 33.689192 33.726031 33.763498
33.801751 33.840827 33.880897 33.921973 33.964238 34.007679 34.052487 34.098624
34.146287 34.195413 34.246203 34.298568 34.352712 34.408519 34.466194 34.525595
34.586925 34.650015 34.715066 34.781882 34.850662 34.921182 34.993635 35.067773
35.143782 35.221390 35.300775 35.381641 35.464159 35.548011 35.633359 35.719866
35.807684 35.896459 35.986334 36.076941 36.168412 36.260369 36.352935 36.445723
36.538849 36.631920 36.725046 36.817831 36.910379 37.002297 37.093684 37.184151
37.273793 37.362232 37.449558 37.535406 37.619863 37.702579 37.783641 37.862715
37.939887 38.014843 38.087669 38.158071 38.226135 38.291589 38.354517 38.414673
38.472136 38.526687 38.578400 38.627081 38.672801 38.715389 38.754911 38.791222
38.824379 38.854262 38.880920 38.904258 38.924315 38.941020 38.954401 38.964412
38.971069 38.974349 38.974257 38.970794 38.963953 38.953758 38.940190 38.923296
38.903049 38.879517 38.852663 38.822580 38.789220 38.752702 38.712969 38.670164
38.624223 38.575316 38.523371 38.468584 38.410878 38.350475 38.287294 38.221581
38.153253 38.082582 38.009482 37.934246 37.856790 37.777428 37.696074 37.613063
37.528307 37.442160 37.354532 37.265791 37.175847 37.085079 36.993394 36.901181
36.808342 36.715272 36.621868 36.528527 36.435142 36.342106 36.249305 36.157130
36.065456 35.974667 35.884629 35.795716 35.707784 35.621192 35.535788 35.451914
35.369408 35.288593 35.209298 35.131825 35.055995 34.982087 34.909914 34.839730
34.771343 34.704982 34.640448 34.577943 34.517267 34.458595 34.401722 34.346797
34.293616 34.242301 34.192645 34.144747 34.098403 34.053682 34.010386 33.968560
33.928010 33.888756 33.850612 33.813574 33.777464 33.742256 33.707783 33.673997
33.640742 33.607950 33.575479 33.543241 33.511111
33.888889 33.933019 33.977283 34.021836 34.066788 34.112314 34.158499 34.205536
34.253483 34.302548 34.352762 34.404345 34.457300 34.511859 34.567992 34.625941
34.685644 34.747349 34.810964 34.876741 34.944553 35.014654 35.086886 35.161502
35.238309 35.317560 35.399027 35.482960 35.569097 35.657681 35.748420 35.841550
35.936745 36.034232 36.133658 36.235238 36.338590 36.443920 36.550819 36.659483
36.769479 36.880989 36.993564 37.107373 37.221948 37.337449 37.453396 37.569938
37.686586 37.803478 37.920123 38.036650 38.152567 38.267999 38.382456 38.496058
38.608324 38.719369 38.828727 38.936510 39.042266 39.146106 39.247601 39.346859
39.443474 39.537552 39.628715 39.717068 39.802259 39.884393 39.963147 40.038623
40.110530 40.178965 40.243669 40.304735 40.361933 40.415350 40.464790 40.510329
40.551802 40.589277 40.622619 40.651884 40.676969 40.697915 40.714650 40.727202
40.735528 40.739641 40.739526 40.735185 40.726630 40.713847 40.696879 40.675698
40.650375 40.620869 40.587282 40.549558 40.507830 40.462033 40.412329 40.358642
40.301167 40.239820 40.174826 40.106096 40.033886 39.958101 39.879031 39.796574
39.711053 39.622364 39.530858 39.436431 39.339461 39.239844 39.137984 39.033775
38.927646 38.819489 38.709754 38.598331 38.485688 38.371710 38.256880 38.141080
38.024799 37.907915 37.790924 37.673694 37.556723 37.439872 37.323633 37.207857
37.093030 36.978993 36.866217 36.754533 36.644396 36.535626 36.428659 36.323301
36.219966 36.118449 36.019140 35.921820 35.826852 35.734010 35.643624 35.555460
35.469817 35.386453 35.305636 35.227117 35.151132 35.077426 35.006202 34.937204
34.870602 34.806137 34.743948 34.683777 34.625729 34.569552 34.515316 34.462777
34.411974 34.362669 34.314872 34.268355 34.223098 34.178885 34.135669 34.093249
34.051549 34.010386 33.969658 33.929201 33.888889
34.266667 34.319854 34.373216 34.426899 34.481102 34.535943 34.591644 34.648292
34.706128 34.765205 34.825784 34.887882 34.951774 35.017442 35.085173 35.154913
35.226956 35.301209 35.377975 35.457121 35.538954 35.623300 35.710467 35.800243
35.892932 35.988283 36.086596 36.187580 36.291530 36.398113 36.507616 36.619669
36.734550 36.851850 36.971836 37.094064 37.218788 37.345533 37.474537 37.605296
37.738035 37.872224 38.008072 38.145029 38.283288 38.422282 38.562193 38.702438
38.843187 38.983852 39.124590 39.264811 39.404663 39.543558 39.681638 39.818321
39.953746 40.087344 40.219247 40.348905 40.476450 40.601353 40.723743 40.843120
40.959609 41.072742 41.182642 41.288874 41.391561 41.490301 41.585215 41.675937
41.762587 41.844835 41.922794 41.996173 42.065080 42.129261 42.188814 42.243522
42.293474 42.338490 42.378645 42.413796 42.444004 42.469162 42.489314 42.504389
42.514414 42.519354 42.519217 42.514004 42.503704 42.488352 42.467921 42.442482
42.411989 42.376549 42.336101 42.290786 42.240530 42.185511 42.125642 42.061138
41.991900 41.918182 41.839877 41.757275 41.670263 41.579170 41.483876 41.384749
41.281667 41.175032 41.064720 40.951169 40.834254 40.714447 40.591619 40.466274
40.338282 40.208174 40.075819 39.941769 39.805892 39.668758 39.530230 39.390893
39.250605 39.109958 38.968803 38.827735 38.686597 38.545982 38.405720 38.266399
38.127837 37.990608 37.854518 37.720123 37.587215 37.456330 37.327245 37.200469
37.075766 36.953616 36.833769 36.716674 36.602066 36.490361 36.381282 36.275208
36.171852 36.071555 35.974023 35.879556 35.787852 35.699176 35.613219 35.530205
35.449824 35.372261 35.297207 35.224804 35.154749 35.087145 35.021693 34.958459
34.897151 34.837800 34.780125 34.724118 34.669513 34.616269 34.564134 34.513035
34.462739 34.413140 34.364028 34.315266 34.266667
34.644444 34.706822 34.769388 34.832361 34.895898 34.960244 35.025520 35.091997
35.159758 35.229096 35.300056 35.372948 35.447775 35.524864 35.604175 35.686048
35.770398 35.857573 35.947445 36.040368 36.136165 36.235193 36.337232 36.442636
36.551137 36.663088 36.778172 36.896737 37.018420 37.143560 37.271747 37.403310
37.537796 37.675520 37.815987 37.959498 38.105517 38.254329 38.405365 38.558890
38.714303 38.871853 39.030909 39.191705 39.353586 39.516770 39.680583 39.845229
40.010023 40.175153 40.339928 40.504525 40.668254 40.831283 40.992925 41.153343
41.311864 41.468642 41.623023 41.775160 41.924422 42.070958 42.214168 42.354198
42.490483 42.623167 42.751722 42.876292 42.996389 43.112153 43.223139 43.329486
43.430791 43.527187 43.618315 43.704304 43.784838 43.860036 43.929627 43.993718
44.052082 44.104812 44.151724 44.192895 44.228183 44.257647 44.281186 44.298842
44.310552 44.316338 44.316178 44.310074 44.298044 44.280067 44.256203 44.226411
44.190791 44.149284 44.102031 44.048953 43.990235 43.925783 43.855823 43.780248
43.699329 43.612946 43.521414 43.424606 43.322879 43.216100 43.104673 42.988456
42.867899 42.742859 42.613825 42.480653 42.343872 42.203339 42.059619 41.912567
41.762785 41.610124 41.455216 41.297910 41.138862 40.977919 40.815755 40.652210
40.487974 40.322878 40.157619 39.992018 39.826773 39.661695 39.497473 39.333907
39.171676 39.010561 38.851225 38.693434 38.537828 38.384156 38.233029 38.084180
37.938189 37.794771 37.654470 37.516985 37.382822 37.251666 37.123979 36.999434
36.878449 36.760687 36.646521 36.535602 36.428260 36.324139 36.223521 36.126048
36.031955 35.940882 35.853018 35.768005 35.685985 35.606607 35.529968 35.455723
35.383926 35.314244 35.246687 35.180936 35.116962 35.054462 34.993366 34.933393
34.874436 34.816236 34.758650 34.701444 34.644444
35.022222 35.093928 35.165869 35.238242 35.311314 35.385245 35.460331 35.536692
35.614650 35.694279 35.775926 35.859619 35.945724 36.034221 36.125492 36.219467
36.316541 36.416592 36.520023 36.626662 36.736914 36.850555 36.967992 37.088946
37.213821 37.342286 37.474740 37.610796 37.750846 37.894449 38.041986 38.192966
38.347753 38.505809 38.667481 38.832184 39.000247 39.171041 39.344878 39.521088
39.699962 39.880795 40.063861 40.248424 40.434736 40.622040 40.810570 40.999550
41.189199 41.378728 41.568343 41.757253 41.945649 42.132744 42.318721 42.502803
42.685165 42.865050 43.042627 43.217163 43.388825 43.556910 43.721582 43.882177
44.038859 44.191001 44.338767 44.481577 44.619592 44.752280 44.879801 45.001669
45.118042 45.228485 45.333148 45.431648 45.524126 45.610250 45.690148 45.763539
45.830537 45.890910 45.944756 45.991889 46.032388 46.066116 46.093130 46.113339
46.126778 46.133401 46.133220 46.126234 46.112430 46.091854 46.064470 46.030369
45.989491 45.941975 45.887740 45.826971 45.759569 45.685766 45.605447 45.518894
45.425977 45.327027 45.221904 45.110990 44.994136 44.871774 44.743750 44.610546
44.472005 44.328658 44.180345 44.027646 43.870399 43.709230 43.543974 43.375301
43.203045 43.027910 42.849732 42.669244 42.486279 42.301598 42.115025 41.927342
41.738365 41.548888 41.358719 41.168654 40.978488 40.789016 40.600020 40.412282
40.225568 40.040645 39.857259 39.676154 39.497058 39.320685 39.146743 38.975912
38.807880 38.643288 38.481805 38.324030 38.169612 38.019104 37.872140 37.729223
37.589973 37.454843 37.323440 37.196164 37.072614 36.953138 36.837327 36.725477
36.617175 36.512662 36.411529 36.313964 36.219559 36.128450 36.040239 35.955009
35.872374 35.792368 35.714617 35.639110 35.565489 35.493696 35.423397 35.354488
35.286661 35.219770 35.153534 35.087769 35.022222
35.400000 35.481209 35.562664 35.644646 35.727361 35.811126 35.896099 35.982631
36.070832 36.161079 36.253434 36.348297 36.445675 36.545990 36.649195 36.755725
36.865477 36.978899 37.095828 37.216719 37.341352 37.470183 37.602933 37.740056
37.881212 38.026852 38.176575 38.330823 38.489135 38.651941 38.818722 38.989893
39.164877 39.344073 39.526848 39.713582 39.903591 40.097233 40.293777 40.493560
40.695806 40.900830 41.107821 41.317070 41.527735 41.740085 41.953257 42.167498
42.381929 42.596781 42.811164 43.025295 43.238285 43.450339 43.660574 43.869187
44.075313 44.279140 44.479828 44.677561 44.871531 45.061921 45.247959 45.429828
45.606802 45.779061 45.945929 46.107585 46.263405 46.413569 46.557507 46.695395
46.826719 46.951650 47.069733 47.181131 47.285444 47.382824 47.472930 47.555898
47.631443 47.699683 47.760388 47.813656 47.859309 47.897424 47.927874 47.950710
47.965858 47.973343 47.973139 47.965247 47.949691 47.926443 47.895579 47.857045
47.810968 47.757269 47.696128 47.627443 47.551446 47.468015 47.377438 47.279575
47.174769 47.062866 46.944267 46.818806 46.686941 46.548500 46.403997 46.253254
46.096843 45.934583 45.767101 45.594216 45.416607 45.234092 45.047399 44.856347
44.661709 44.463303 44.261939 44.057435 43.850633 43.641345 43.430441 43.217725
43.004084 42.789314 42.574309 42.358854 42.143845 41.929049 41.715356 41.502517
41.291404 41.081749 40.874401 40.669072 40.466580 40.266613 40.069956 39.876273
39.686305 39.499696 39.317142 39.138261 38.963701 38.793061 38.626934 38.464901
38.307499 38.154294 38.005765 37.861465 37.721813 37.586355 37.455450 37.328636
37.206213 37.087718 36.973392 36.862772 36.756041 36.652743 36.553001 36.456370
36.362917 36.272212 36.184266 36.098665 36.015370 35.933990 35.854432 35.776332
35.699551 35.623751 35.548749 35.474241 35.400000
35.777778 35.868665 35.959847 36.051577 36.144189 36.237889 36.333047 36.429817
36.528605 36.629507 36.732957 36.838998 36.948085 37.060200 37.175819 37.294863
37.417823 37.544554 37.675557 37.810624 37.950261 38.094191 38.242924 38.396114
38.554268 38.716973 38.884727 39.057052 39.234432 39.416323 39.603196 39.794441
39.990509 40.190729 40.395531 40.604184 40.817096 41.033479 41.253715 41.476969
41.703597 41.932717 42.164659 42.398505 42.634559 42.871873 43.110728 43.350151
43.590404 43.830500 44.070681 44.309957 44.548554 44.785487 45.020969 45.254030
45.484875 45.712555 45.937271 46.158105 46.375257 46.587847 46.796073 46.999105
47.197138 47.389395 47.576073 47.756450 47.930724 48.098234 48.259175 48.412949
48.559748 48.699037 48.831002 48.955170 49.071717 49.180236 49.280887 49.373326
49.457695 49.533710 49.601495 49.660824 49.711795 49.754241 49.788235 49.813665
49.830576 49.838911 49.838686 49.829900 49.812536 49.786651 49.752198 49.709288
49.657847 49.598043 49.529774 49.453266 49.368395 49.275445 49.174271 49.065218
48.948123 48.823396 48.690859 48.550984 48.403585 48.249197 48.087627 47.919476
47.744546 47.563500 47.376140 47.183189 46.984450 46.780702 46.571749 46.358425
46.140532 45.918950 45.693483 45.465052 45.233455 44.999647 44.763421 44.525755
44.286434 44.046451 43.805578 43.564815 43.323918 43.083883 42.844448 42.606595
42.370042 42.135749 41.903411 41.673956 41.447057 41.223604 41.003242 40.786819
40.573955 40.365448 40.160892 39.961031 39.765435 39.574790 39.388645 39.207625
39.031257 38.860105 38.693679 38.532478 38.376000 38.224675 38.077996 37.936325
37.799149 37.666765 37.538660 37.415064 37.295469 37.180040 37.068277 36.960282
36.855569 36.754177 36.655637 36.559930 36.466609 36.375597 36.286473 36.199106
36.113104 36.028286 35.944294 35.860898 35.777778
36.155556 36.256333 36.357414 36.459149 36.561789 36.665727 36.771163 36.878524
36.987953 37.099913 37.214482 37.332153 37.452941 37.577361 37.705361 37.837476
37.973586 38.114236 38.259235 38.409140 38.563685 38.723430 38.888036 39.058061
39.233093 39.413681 39.599340 39.790609 39.986928 40.188820 40.395654 40.607934
40.824956 41.047204 41.273907 41.505521 41.741214 41.981414 42.225230 42.473061
42.723963 42.978306 43.235101 43.494689 43.756041 44.019472 44.283923 44.549684
44.815676 45.082165 45.348063 45.613618 45.877739 46.140662 46.401305 46.659892
46.915365 47.167937 47.416583 47.661511 47.901736 48.137466 48.367763 48.592836
48.811802 49.024873 49.231226 49.431074 49.623659 49.809196 49.986995 50.157267
50.319394 50.473582 50.619283 50.756695 50.885338 51.005400 51.116470 51.218717
51.311798 51.395862 51.470632 51.536231 51.592447 51.639374 51.676861 51.704974
51.723623 51.732838 51.732592 51.722882 51.703738 51.675126 51.637135 51.589700
51.532970 51.466849 51.391549 51.306945 51.213314 51.110506 50.998863 50.878215
50.748972 50.610946 50.464617 50.309786 50.147000 49.976054 49.797566 49.611324
49.418019 49.217437 49.010335 48.796501 48.576760 48.350899 48.119805 47.883267
47.642228 47.396479 47.147009 46.893610 46.637313 46.377903 46.116444 45.852714
45.587799 45.321466 45.054811 44.787586 44.520890 44.254455 43.989370 43.725345
43.463450 43.203370 42.946145 42.691433 42.440238 42.192188 41.948242 41.708000
41.472367 41.240915 41.014491 40.792640 40.576148 40.364531 40.158510 39.957579
39.762388 39.572412 39.388230 39.209300 39.036129 38.868162 38.705833 38.548581
38.396764 38.249819 38.108032 37.970841 37.838459 37.710332 37.586603 37.466729
37.350784 37.238242 37.129110 37.022883 36.919506 36.818498 36.719743 36.622793
36.527471 36.433365 36.340244 36.247735 36.155556
36.533333 36.644210 36.755445 36.867346 36.980320 37.094616 37.210686 37.328717
37.449200 37.572257 37.698411 37.827719 37.960730 38.097430 38.238391 38.383524
38.533420 38.687912 38.847602 39.012247 39.182454 39.357899 39.539190 39.725922
39.918699 40.117034 40.321521 40.531593 40.747826 40.969575 41.197398 41.430568
41.669622 41.913757 42.163482 42.417924 42.677560 42.941450 43.210041 43.482331
43.758733 44.038191 44.321086 44.606314 44.894227 45.183681 45.474998 45.767008
46.060005 46.352803 46.645673 46.937422 47.228302 47.517127 47.804135 48.088157
48.369420 48.646786 48.920475 49.189388 49.453745 49.712495 49.965858 50.212842
50.453670 50.687412 50.914296 51.133463 51.345141 51.548546 51.743907 51.930515
52.108598 52.277523 52.437512 52.588010 52.729226 52.860682 52.982573 53.094494
53.196619 53.288615 53.370632 53.442408 53.504062 53.555400 53.596510 53.627263
53.647713 53.657795 53.657527 53.646909 53.625920 53.594626 53.552969 53.501079
53.438866 53.366524 53.283930 53.191348 53.088625 52.976095 52.853580 52.721487
52.579618 52.428454 52.267781 52.098156 51.919357 51.732015 51.535904 51.331732
51.119269 50.899303 50.671603 50.437030 50.195358 49.947517 49.693284 49.433655
49.168410 48.898603 48.624015 48.345749 48.063586 47.778669 47.490771 47.201068
46.909322 46.616726 46.323031 46.029434 45.735668 45.442927 45.150918 44.860821
44.572316 44.286555 44.003191 43.723338 43.446617 43.174096 42.905364 42.641436
42.381867 42.127612 41.878194 41.634503 41.396031 41.163596 40.936664 40.715978
40.500979 40.292335 40.089466 39.892958 39.702218 39.517752 39.338955 39.166252
38.999032 38.837642 38.681467 38.530777 38.384961 38.244211 38.107926 37.976221
37.848510 37.724837 37.604634 37.487874 37.374017 37.262965 37.154209 37.047588
36.942628 36.839105 36.736587 36.634792 36.533333
36.911111 37.032335 37.153922 37.276292 37.399750 37.524762 37.651570 37.780686
37.912283 38.046911 38.184673 38.326152 38.471374 38.620949 38.774825 38.933635
39.097244 39.266299 39.440583 39.620752 39.806503 39.998494 40.196336 40.400685
40.611062 40.828114 41.051276 41.281180 41.517171 41.759864 42.008518 42.263723
42.524653 42.791870 43.064468 43.342977 43.626416 43.915279 44.208515 44.506581
44.808363 45.114281 45.423167 45.735404 46.049775 46.366632 46.684721 47.004363
47.324277 47.644758 47.964514 48.283813 48.601365 48.917421 49.230702 49.541448
49.848404 50.151803 50.450429 50.744509 51.032878 51.315765 51.592061 51.862001
52.124543 52.379925 52.627181 52.866553 53.097155 53.319231 53.531979 53.735642
53.929502 54.113800 54.287900 54.452037 54.605656 54.748979 54.881534 55.003522
55.114551 55.214797 55.303944 55.382140 55.449141 55.505063 55.549733 55.583229
55.605449 55.616432 55.616143 55.604582 55.581782 55.547701 55.502443 55.445926
55.378322 55.299515 55.209747 55.108868 54.997195 54.874548 54.741320 54.597309
54.442986 54.278129 54.103291 53.918237 53.723603 53.519147 53.305589 53.082683
52.851234 52.610997 52.362859 52.106578 51.843123 51.572256 51.295019 51.011181
50.721852 50.426803 50.127206 49.822833 49.514904 49.203188 48.888946 48.571938
48.253451 47.933235 47.612587 47.291242 46.970498 46.650064 46.331230 46.013677
45.698669 45.385857 45.076470 44.770124 44.468004 44.169689 43.876309 43.587407
43.304051 43.025747 42.753493 42.486761 42.226473 41.972071 41.724396 41.482861
41.248225 41.019874 40.798484 40.583420 40.375272 40.173389 39.978272 39.789263
39.606776 39.430146 39.259703 39.094782 38.935628 38.781584 38.632812 38.488668
38.349232 38.213880 38.082613 37.954832 37.830464 37.708939 37.590111 37.473447
37.358734 37.245478 37.133402 37.022059 36.911111
37.288889 37.420698 37.552931 37.685954 37.820247 37.956108 38.094068 38.234354
38.377542 38.523785 38.673695 38.827346 38.985384 39.147800 39.315264 39.487682
39.665745 39.849267 40.038953 40.234527 40.436698 40.645099 40.860436 41.082248
41.311236 41.546842 41.789755 42.039322 42.296212 42.559679 42.830366 43.107435
43.391501 43.681636 43.978421 44.280844 44.589447 44.903138 45.222422 45.546133
45.874733 46.206993 46.543335 46.882472 47.224788 47.568949 47.915305 48.262486
48.610810 48.958888 49.307007 49.653772 49.999449 50.342648 50.683619 51.020993
51.355011 51.684338 52.009210 52.328340 52.641963 52.948854 53.249250 53.541996
53.827337 54.104195 54.372820 54.632221 54.882654 55.123214 55.354164 55.574689
55.785050 55.984526 56.173372 56.350956 56.517525 56.672535 56.816214 56.948106
57.068416 57.176769 57.273344 57.357844 57.430413 57.490833 57.539209 57.575396
57.599459 57.611325 57.611016 57.598530 57.573846 57.537033 57.488027 57.426970
57.353755 57.268600 57.171359 57.062328 56.941326 56.808729 56.664328 56.508581
56.341257 56.162899 55.973261 55.772974 55.561782 55.340406 55.108585 54.867134
54.615790 54.355460 54.085887 53.808064 53.521741 53.227997 52.926590 52.618676
52.304020 51.983850 51.657933 51.327558 50.992493 50.654076 50.312070 49.967849
49.621166 49.273416 48.924337 48.575332 48.226115 47.878085 47.530928 47.186022
46.843022 46.503272 46.166390 45.833679 45.504715 45.180745 44.861308 44.547585
44.239074 43.936885 43.640475 43.350876 43.067507 42.791317 42.521691 42.259490
42.004067 41.756193 41.515198 41.281756 41.055179 40.836049 40.623660 40.418501
40.219860 40.028131 39.842598 39.663565 39.490320 39.323075 39.161130 39.004609
38.852828 38.705825 38.562940 38.424128 38.288759 38.156708 38.027381 37.900577
37.775743 37.652609 37.530666 37.409578 37.288889
37.666667 37.809341 37.952443 38.096461 38.241756 38.388872 38.538097 38.690027
38.844870 39.003267 39.165344 39.331779 39.502611 39.678549 39.859542 40.046323
40.238748 40.437564 40.642534 40.854412 41.072862 41.298642 41.531315 41.771635
42.019062 42.274338 42.536822 42.807238 43.084842 43.370335 43.662872 43.963124
44.270149 44.584580 44.905383 45.233151 45.566761 45.906764 46.251952 46.602832
46.958122 47.318283 47.681965 48.049588 48.419744 48.792811 49.167339 49.543667
49.920314 50.297586 50.673987 51.049794 51.423512 51.795397 52.163969 52.529471
52.890451 53.247146 53.598152 53.943702 54.282451 54.614637 54.938987 55.255746
55.563720 55.863166 56.152980 56.433425 56.703493 56.963455 57.212400 57.450606
57.677257 57.892631 58.096011 58.287668 58.466983 58.634210 58.788825 58.931062
59.060484 59.177301 59.281160 59.372237 59.450263 59.515373 59.567378 59.606371
59.632237 59.645025 59.644696 59.631249 59.604720 59.565061 59.512384 59.446595
59.367882 59.276107 59.171538 59.053999 58.923839 58.780850 58.625466 58.457451
58.277331 58.084849 57.880623 57.664382 57.436844 57.197730 56.947854 56.686940
56.415899 56.134460 55.843634 55.543155 55.234130 54.916304 54.590874 54.257592
53.917739 53.571075 53.218951 52.861135 52.499035 52.132417 51.762739 51.389759
51.014966 50.638104 50.260678 49.882413 49.504814 49.127578 48.752196 48.378333
48.007449 47.639171 47.274918 46.914274 46.558605 46.207449 45.862108 45.522075
45.188576 44.861061 44.540675 44.226823 43.920563 43.621260 43.329879 43.045749
42.769739 42.501147 42.240742 41.987797 41.742982 41.505549 41.276066 41.053775
40.839142 40.631402 40.430922 40.236938 40.049718 39.868506 39.693475 39.523882
39.359807 39.200529 39.046038 38.895639 38.749238 38.606175 38.466270 38.328905
38.193824 38.060453 37.928463 37.797334 37.666667
38.044444 38.198248 38.352546 38.507762 38.664453 38.822969 38.983924 39.147587
39.314621 39.485213 39.660066 39.839277 40.023588 40.213000 40.408284 40.609342
40.816967 41.030961 41.252128 41.480168 41.715890 41.958887 42.209966 42.468613
42.735626 43.010381 43.293659 43.584727 43.884343 44.191666 44.507421 44.830663
45.162080 45.500624 45.846941 46.199884 46.560055 46.926212 47.298909 47.676818
48.060443 48.448381 48.841085 49.237083 49.636785 50.038662 50.443078 50.848466
51.255150 51.661537 52.067918 52.472691 52.876120 53.276612 53.674411 54.067950
54.457464 54.841425 55.220065 55.591915 55.957211 56.314553 56.664187 57.004797
57.336639 57.658491 57.970623 58.271911 58.562638 58.841786 59.109645 59.365304
59.609056 59.840098 60.058721 60.264225 60.456891 60.636121 60.802180 60.954565