# vtk DataFile Version 3.0
Steady-state temperature (Jacobi)
ASCII
DATASET STRUCTURED_POINTS
DIMENSIONS 181 181 1
ORIGIN 0.0 0.0 0.0
SPACING 0.05 0.05 1.0
POINT_DATA 32761
SCALARS Temperature float 1
LOOKUP_TABLE default
32.000000 32.000000 32.000000 32.000000 32.000000 32.000000 32.000000 32.000000
32.000000 32.000000 32.000000 32.000000 32.000000 32.000000 32.000000 32.000000
32.000000 32.000000 32.000000 32.000000 32.000000 32.000000 32.000000 32.000000
32.000000 32.000000 32.000000 32.000000 32.000000 32.000000 32.000000 32.000000
32.000000 32.000000 32.000000 32.000000 32.000000 32.000000 32.000000 32.000000
32.000000 32.000000 32.000000 32.000000 32.000000 32.000000 32.000000 32.000000
32.000000 32.000000 32.000000 32.000000 32.000000 32.000000 32.000000 32.000000
32.000000 32.000000 32.000000 32.000000 32.000000 32.000000 32.000000 32.000000
32.000000 32.000000 32.000000 32.000000 32.000000 32.000000 32.000000 32.000000
32.000000 32.000000 32.000000 32.000000 32.000000 32.000000 32.000000 32.000000
32.000000 32.000000 32.000000 32.000000 32.000000 32.000000 32.000000 32.000000
32.000000 32.000000 32.000000 32.000000 32.000000 32.000000 32.000000 32.000000
32.000000 32.000000 32.000000 32.000000 32.000000 32.000000 32.000000 32.000000
32.000000 32.000000 32.000000 32.000000 32.000000 32.000000 32.000000 32.000000
32.000000 32.000000 32.000000 32.000000 32.000000 32.000000 32.000000 32.000000
32.000000 32.000000 32.000000 32.000000 32.000000 32.000000 32.000000 32.000000
32.000000 32.000000 32.000000 32.000000 32.000000 32.000000 32.000000 32.000000
32.000000 32.000000 32.000000 32.000000 32.000000 32.000000 32.000000 32.000000
32.000000 32.000000 32.000000 32.000000 32.000000 32.000000 32.000000 32.000000
32.000000 32.000000 32.000000 32.000000 32.000000 32.000000 32.000000 32.000000
32.000000 32.000000 32.000000 32.000000 32.000000 32.000000 32.000000 32.000000
32.000000 32.000000 32.000000 32.000000 32.000000 32.000000 32.000000 32.000000
32.000000 32.000000 32.000000 32.000000 32.000000
32.377778 32.376414 32.375082 32.373819 32.372651 32.371620 32.370746 32.370076
32.369622 32.369437 32.369526 32.369945 32.370692 32.371827 32.373340 32.375294
32.377671 32.380538 32.383867 32.387728 32.392086 32.397011 32.402458 32.408502
32.415089 32.422293 32.430051 32.438440 32.447387 32.456968 32.467102 32.477867
32.489172 32.501093 32.513533 32.526567 32.540089 32.554174 32.568709 32.583767
32.599228 32.615164 32.631451 32.648158 32.665154 32.682510 32.700090 32.717962
32.735988 32.754235 32.772562 32.791036 32.809516 32.828065 32.846544 32.865016
32.883341 32.901583 32.919605 32.937469 32.955042 32.972384 32.989370 33.006057
33.022325 33.038231 33.053661 33.068670 33.083154 33.097163 33.110602 33.123520
33.135829 33.147575 33.158680 33.169186 33.179023 33.188231 33.196749 33.204611
33.211767 33.218246 33.224005 33.229071 33.233409 33.237038 33.239936 33.242114
33.243560 33.244278 33.244264 33.243519 33.242047 33.239841 33.236915 33.233257
33.228890 33.223794 33.218003 33.211491 33.204301 33.196402 33.187847 33.178599
33.168720 33.158170 33.147020 33.135225 33.122865 33.109893 33.096397 33.082328
33.067782 33.052706 33.037206 33.021228 33.004884 32.988117 32.971048 32.953618
32.935954 32.917995 32.899875 32.881531 32.863099 32.844517 32.825925 32.807259
32.788658 32.770060 32.751605 32.733228 32.715069 32.697061 32.679343 32.661847
32.644708 32.627857 32.611426 32.595344 32.579738 32.564534 32.549855 32.535626
32.521963 32.508790 32.496214 32.484161 32.472728 32.461841 32.451591 32.441900
32.432852 32.424370 32.416528 32.409251 32.402603 32.396509 32.391025 32.386078
32.381715 32.377864 32.374562 32.371741 32.369430 32.367561 32.366157 32.365151
32.364559 32.364318 32.364434 32.364849 32.365562 32.366518 32.367709 32.369085
32.370631 32.372301 32.374073 32.375908 32.377778
32.755556 32.752850 32.750214 32.747704 32.745402 32.743351 32.741643 32.740308
32.739449 32.739080 32.739312 32.740148 32.741704 32.743967 32.747063 32.750961
32.755793 32.761512 32.768257 32.775962 32.784771 32.794602 32.805600 32.817667
32.830951 32.845336 32.860972 32.877724 32.895745 32.914881 32.935286 32.956788
32.979540 33.003355 33.028385 33.054425 33.081625 33.109767 33.138999 33.169086
33.200175 33.232020 33.264764 33.298149 33.332317 33.367000 33.402336 33.438052
33.474282 33.510747 33.547580 33.584499 33.621634 33.658703 33.695834 33.732747
33.769568 33.806021 33.842229 33.877925 33.913230 33.947884 33.982005 34.015348
34.048026 34.079806 34.110799 34.140787 34.169877 34.197866 34.224857 34.250663
34.275383 34.298848 34.321148 34.342134 34.361888 34.380280 34.397385 34.413088
34.427457 34.440396 34.451961 34.462077 34.470788 34.478036 34.483855 34.488205
34.491107 34.492541 34.492514 34.491026 34.488070 34.483665 34.477791 34.470485
34.461715 34.451538 34.439910 34.426905 34.412467 34.396692 34.379512 34.361041
34.341203 34.320130 34.297737 34.274175 34.249353 34.223439 34.196334 34.168226
34.139010 34.108890 34.077758 34.045832 34.013001 33.979499 33.945210 33.910382
33.874896 33.839010 33.802605 33.765947 33.728914 33.691781 33.654423 33.617120
33.579743 33.542576 33.505488 33.468763 33.432266 33.396279 33.360666 33.325703
33.291251 33.257578 33.224545 33.192409 33.161028 33.130651 33.101130 33.072701
33.045218 33.018900 32.993599 32.969520 32.946512 32.924766 32.904129 32.884774
32.866550 32.849613 32.833809 32.819279 32.805871 32.793706 32.782635 32.772762
32.763940 32.756256 32.749566 32.743939 32.739238 32.735514 32.732633 32.730632
32.729384 32.728908 32.729084 32.729916 32.731293 32.733203 32.735543 32.738288
32.741344 32.744672 32.748187 32.751840 32.755556
33.133333 33.129335 33.125433 33.121738 33.118328 33.115332 33.112806 33.110896
33.109637 33.109187 33.109561 33.110929 33.113284 33.116808 33.121468 33.127458
33.134720 33.143457 33.153586 33.165317 33.178540 33.193474 33.209981 33.228285
33.248222 33.270017 33.293483 33.318845 33.345889 33.374843 33.405464 33.437982
33.472127 33.508129 33.545693 33.585045 33.625867 33.668385 33.712256 33.757703
33.804363 33.852455 33.901600 33.952010 34.003292 34.055654 34.108689 34.162603
34.216979 34.272018 34.327298 34.383017 34.438749 34.494688 34.550411 34.606109
34.661364 34.716363 34.770696 34.824547 34.877520 34.929794 34.980989 35.031280
35.080305 35.128235 35.174729 35.219952 35.263586 35.305791 35.346273 35.385184
35.422256 35.457633 35.491074 35.522711 35.552332 35.580057 35.605701 35.629373
35.650914 35.670418 35.687756 35.703003 35.716060 35.726985 35.735707 35.742264
35.746613 35.748775 35.748735 35.746493 35.742062 35.735422 35.726617 35.715606
35.702460 35.687121 35.669689 35.650086 35.628442 35.604663 35.578905 35.551061
35.521315 35.489547 35.455967 35.420445 35.383219 35.344147 35.303494 35.261110
35.217287 35.171866 35.125164 35.077016 35.027762 34.977231 34.925785 34.873250
34.820004 34.765868 34.711239 34.655934 34.600360 34.544333 34.488269 34.431978
34.375884 34.319794 34.264132 34.208702 34.153927 34.099605 34.046155 33.993372
33.941664 33.890823 33.841244 33.792716 33.745619 33.699736 33.655431 33.612484
33.571238 33.531469 33.493498 33.457101 33.422574 33.389689 33.358720 33.329439
33.302091 33.276450 33.252736 33.230721 33.210600 33.192149 33.175535 33.160537
33.147297 33.135597 33.125553 33.116955 33.109893 33.104162 33.099829 33.096698
33.094809 33.093978 33.094222 33.095367 33.097407 33.100181 33.103660 33.107697
33.112243 33.117165 33.122394 33.127812 33.133333
33.511111 33.505886 33.500799 33.495968 33.491552 33.487643 33.484422 33.481952
33.480436 33.479908 33.480588 33.482480 33.485821 33.490583 33.497019 33.505068
33.514994 33.526706 33.540478 33.556182 33.574105 33.594082 33.616407 33.640882
33.667805 33.696941 33.728593 33.762492 33.798940 33.837634 33.878877 33.922330
33.968296 34.016401 34.066948 34.119528 34.174442 34.231249 34.290248 34.350968
34.413702 34.477955 34.544015 34.611365 34.680285 34.750240 34.821505 34.893531
34.966587 35.040113 35.114374 35.188803 35.263661 35.338381 35.413218 35.487610
35.561808 35.635260 35.708211 35.780125 35.851240 35.921041 35.989761 36.056905
36.122704 36.186689 36.249082 36.309446 36.367995 36.424323 36.478636 36.530560
36.580293 36.627496 36.672351 36.714559 36.754287 36.791272 36.825664 36.857238
36.886125 36.912137 36.935385 36.955719 36.973227 36.987796 36.999490 37.008233
37.014065 37.016948 37.016895 37.013905 37.007964 36.999111 36.987305 36.972622
36.954996 36.934540 36.911165 36.885022 36.855997 36.824280 36.789737 36.752594
36.712700 36.670317 36.625276 36.577879 36.527942 36.475802 36.421262 36.364695
36.305895 36.245267 36.182595 36.118320 36.052215 35.984751 35.915697 35.845548
35.774069 35.701776 35.628431 35.554570 35.479947 35.405115 35.329824 35.254636
35.179296 35.104370 35.029601 34.955554 34.881965 34.809396 34.737578 34.667061
34.597573 34.529650 34.463011 34.398177 34.334860 34.273560 34.213983 34.156604
34.101124 34.047990 33.996900 33.948269 33.901793 33.857853 33.816146 33.777018
33.740164 33.705897 33.673912 33.644487 33.617319 33.592650 33.570183 33.550123
33.532178 33.516519 33.502861 33.491339 33.481679 33.473981 33.467982 33.463749
33.461030 33.459863 33.460007 33.461470 33.464027 33.467656 33.472149 33.477456
33.483388 33.489866 33.496722 33.503854 33.511111
33.888889 33.882534 33.876339 33.870493 33.865125 33.860451 33.856567 33.853715
33.851955 33.851553 33.852534 33.855183 33.859488 33.865754 33.873927 33.884331
33.896872 33.911886 33.929238 33.949278 33.971825 33.997240 34.025300 34.056374
34.090191 34.127129 34.166871 34.209797 34.255548 34.304506 34.356265 34.411208
34.468886 34.529680 34.593098 34.659519 34.728410 34.800145 34.874156 34.950810
35.029503 35.110596 35.193457 35.278439 35.364883 35.453135 35.542516 35.633364
35.724985 35.817710 35.910835 36.004684 36.098550 36.192751 36.286582 36.380355
36.473376 36.565949 36.657395 36.748015 36.837149 36.925093 37.011212 37.095795
37.178241 37.258832 37.336999 37.413016 37.486354 37.557278 37.625299 37.690668
37.752943 37.812359 37.868518 37.921640 37.971371 38.017913 38.060960 38.100688
38.136839 38.169566 38.198658 38.224239 38.246146 38.264473 38.279104 38.290103
38.297400 38.301027 38.300960 38.297199 38.289767 38.278631 38.263861 38.245390
38.223336 38.197603 38.168353 38.135462 38.099138 38.059231 38.015996 37.969257
37.919317 37.865976 37.809587 37.749928 37.687398 37.621759 37.553454 37.482232
37.408579 37.332232 37.253718 37.172764 37.089936 37.004953 36.918417 36.830037
36.740448 36.649355 36.557416 36.464331 36.370780 36.276457 36.182058 36.087272
35.992803 35.898334 35.804573 35.711197 35.618911 35.527383 35.437312 35.348358
35.261204 35.175505 35.091922 35.010102 34.930682 34.853303 34.778571 34.706120
34.636524 34.569410 34.505315 34.443863 34.385551 34.329999 34.277663 34.228162
34.181907 34.138519 34.098366 34.061067 34.026948 33.995632 33.967400 33.941882
33.919312 33.899330 33.882126 33.867350 33.855150 33.845186 33.837565 33.831963
33.828445 33.826703 33.826763 33.828335 33.831409 33.835713 33.841201 33.847625
33.854903 33.862811 33.871235 33.879976 33.888889
34.266667 34.259290 34.252124 34.245343 34.239192 34.233806 34.229461 34.226253
34.224486 34.224215 34.225769 34.229159 34.234738 34.242470 34.252731 34.265435
34.280979 34.299225 34.320586 34.344875 34.372518 34.403274 34.437581 34.475144
34.516410 34.561030 34.609457 34.661287 34.716976 34.776066 34.839016 34.905314
34.975416 35.048759 35.125798 35.205918 35.289568 35.376090 35.465924 35.558368
35.653856 35.751647 35.852166 35.954638 36.059479 36.165886 36.274266 36.383794
36.494869 36.606650 36.719527 36.832651 36.946406 37.059941 37.173633 37.286639
37.399327 37.510872 37.621633 37.730806 37.838746 37.944677 38.048946 38.150811
38.250614 38.347651 38.442255 38.533768 38.622512 38.707876 38.790168 38.868832
38.944158 39.015644 39.083561 39.147461 39.207596 39.263571 39.315614 39.363387
39.407089 39.446438 39.481601 39.512355 39.538831 39.560863 39.578545 39.591766
39.600584 39.604944 39.604864 39.600344 39.591363 39.577978 39.560128 39.537926
39.511273 39.480336 39.444984 39.405437 39.361530 39.313542 39.261273 39.205060
39.144676 39.080514 39.012320 38.940543 38.864910 38.785923 38.703290 38.617568
38.528448 38.436539 38.341519 38.244045 38.143784 38.041440 37.936670 37.830216
37.721730 37.611989 37.500636 37.388478 37.275153 37.161488 37.047116 36.932878
36.818400 36.704532 36.590892 36.478330 36.366456 36.256114 36.146905 36.039657
35.933964 35.830632 35.729246 35.630585 35.534225 35.440912 35.350212 35.262834
35.178337 35.097387 35.019537 34.945407 34.874544 34.807519 34.743877 34.684138
34.627845 34.575467 34.526546 34.481498 34.439870 34.402023 34.367510 34.336639
34.308970 34.284758 34.263576 34.245626 34.230492 34.218328 34.208732 34.201809
34.197177 34.194890 34.194588 34.196279 34.199626 34.204594 34.210869 34.218374
34.226824 34.236101 34.245948 34.256212 34.266667
34.644444 34.636192 34.628166 34.620634 34.613776 34.607900 34.603141 34.599840
34.598085 34.598249 34.600369 34.604848 34.611669 34.621261 34.633554 34.649000
34.667470 34.689437 34.714714 34.743791 34.776418 34.813103 34.853532 34.898223
34.946801 34.999792 35.056757 35.118228 35.183700 35.253710 35.327689 35.406174
35.488535 35.575304 35.665795 35.760531 35.858771 35.961033 36.066521 36.175743
36.287857 36.403361 36.521368 36.642368 36.765437 36.891054 37.018264 37.147536
37.277894 37.409797 37.542254 37.675715 37.809185 37.943103 38.076480 38.209746
38.341924 38.473438 38.603333 38.732024 38.858585 38.983426 39.105657 39.225680
39.342650 39.456957 39.567809 39.675584 39.779543 39.880053 39.976433 40.069033
40.157233 40.241365 40.320872 40.396061 40.466443 40.532295 40.593193 40.649386
40.700515 40.746793 40.787927 40.824091 40.855059 40.880964 40.901644 40.917190
40.927503 40.932629 40.932536 40.927223 40.916721 40.900984 40.880109 40.854004
40.822830 40.786453 40.745099 40.698591 40.647223 40.590779 40.529617 40.463488
40.392816 40.317321 40.237491 40.153020 40.064462 39.971485 39.874708 39.773781
39.669382 39.561145 39.449808 39.334991 39.217488 39.096906 38.974090 38.848640
38.721441 38.592088 38.461504 38.329274 38.196352 38.062318 37.928147 37.793410
37.659096 37.524768 37.391421 37.258607 37.127317 36.997095 36.868919 36.742322
36.618260 36.496257 36.377239 36.260720 36.147591 36.037354 35.930859 35.827598
35.728374 35.632669 35.541235 35.453548 35.370303 35.290971 35.216188 35.145423
35.079252 35.017142 34.959608 34.906118 34.857126 34.812105 34.771444 34.734627
34.701979 34.672995 34.647939 34.626319 34.608341 34.593528 34.582028 34.573383
34.567684 34.564497 34.563858 34.565357 34.568977 34.574339 34.581373 34.589731
34.599296 34.609751 34.620936 34.632568 34.644444
35.022222 35.013243 35.004548 34.996372 34.989045 34.982750 34.977858 34.974501
34.973088 34.973691 34.976757 34.982298 34.990793 35.002193 35.017004 35.035113
35.057052 35.082639 35.112429 35.146173 35.184442 35.226916 35.274181 35.325847
35.382510 35.443706 35.510039 35.580974 35.657117 35.737860 35.823813 35.914294
36.009910 36.109910 36.214898 36.324055 36.437976 36.555780 36.678053 36.803857
36.933764 37.066783 37.203478 37.342809 37.485327 37.629956 37.777233 37.926052
38.076937 38.228764 38.382044 38.535641 38.690057 38.844156 38.998429 39.151750
39.304600 39.455876 39.606049 39.754044 39.900327 40.043862 40.185103 40.323064
40.458189 40.589546 40.717570 40.841386 40.961418 41.076856 41.188107 41.294430
41.396214 41.492788 41.584517 41.670804 41.751985 41.827540 41.897769 41.962227
42.021178 42.074253 42.121672 42.163142 42.198838 42.228540 42.252375 42.270198
42.282085 42.287962 42.287856 42.281765 42.269663 42.251622 42.227564 42.197634
42.161703 42.119991 42.072319 42.018983 41.959757 41.895013 41.824484 41.748614
41.667101 41.580464 41.488367 41.391405 41.289213 41.182459 41.070754 40.954839
40.834305 40.709961 40.581383 40.449445 40.313709 40.175110 40.033201 39.888969
39.741959 39.593206 39.442245 39.290151 39.136452 38.982253 38.827073 38.672038
38.516658 38.362070 38.207773 38.054905 37.902956 37.753052 37.604672 37.458923
37.315271 37.174794 37.036946 36.902768 36.771701 36.644741 36.521316 36.402373
36.287327 36.177068 36.071003 35.969958 35.873332 35.781888 35.695020 35.613419
35.536479 35.464821 35.397838 35.336082 35.278948 35.226915 35.179388 35.136774
35.098486 35.064861 35.035328 35.010153 34.988782 34.971414 34.957515 34.947218
34.940013 34.935970 34.934606 34.935928 34.939485 34.945225 34.952730 34.961892
34.972328 34.983880 34.996201 35.009083 35.022222
35.400000 35.390486 35.381268 35.372690 35.364994 35.358574 35.353611 35.350545
35.349494 35.350941 35.354938 35.362006 35.372128 35.385859 35.403111 35.424469
35.449771 35.479629 35.513804 35.552930 35.596690 35.645735 35.699668 35.759156
35.823719 35.894034 35.969539 36.050917 36.137524 36.230046 36.327756 36.431339
36.539989 36.654386 36.773647 36.898444 37.027820 37.162438 37.301271 37.444970
37.592445 37.744333 37.899490 38.058535 38.220279 38.385325 38.552445 38.722228
38.893418 39.066589 39.240466 39.415613 39.590749 39.766424 39.941363 40.116105
40.289395 40.461760 40.631973 40.800555 40.966316 41.129769 41.289774 41.446833
41.599864 41.749360 41.894304 42.035176 42.171029 42.302328 42.428204 42.549100
42.664228 42.774007 42.877731 42.975790 43.067561 43.153400 43.232770 43.305986
43.372595 43.432869 43.486438 43.533525 43.573844 43.607566 43.634485 43.654719
43.668143 43.674816 43.674696 43.667784 43.654118 43.633639 43.606470 43.572492
43.531910 43.484550 43.430698 43.370129 43.303213 43.229675 43.149968 43.063773
42.971630 42.873178 42.769041 42.658825 42.543238 42.421858 42.295473 42.163637
42.027219 41.885754 41.740187 41.590036 41.436319 41.278542 41.117786 40.953549
40.786970 40.617536 40.446437 40.273151 40.098908 39.923178 39.747218 39.570491
39.394271 39.218009 39.042988 38.868646 38.696261 38.525258 38.356897 38.190591
38.027573 37.867240 37.710787 37.557597 37.408818 37.263819 37.123694 36.987796
36.857158 36.731123 36.610654 36.495083 36.385303 36.280638 36.181904 36.088420
36.000925 35.918736 35.842510 35.771568 35.706486 35.646590 35.592375 35.543177
35.499411 35.460425 35.426556 35.397170 35.372526 35.352010 35.335806 35.323326
35.314682 35.309312 35.307258 35.307991 35.311485 35.317248 35.325188 35.334852
35.346088 35.358483 35.371827 35.385755 35.400000
35.777778 35.767918 35.758417 35.749576 35.741809 35.735354 35.730676 35.727946
35.727679 35.729972 35.735386 35.743944 35.756245 35.772235 35.792549 35.817053
35.846412 35.880407 35.919733 35.964082 36.014172 36.069607 36.131123 36.198233
36.271685 36.350902 36.436642 36.528235 36.626441 36.730502 36.841177 36.957616
37.080576 37.209120 37.343994 37.484179 37.630410 37.781587 37.938434 38.099775
38.266318 38.436823 38.611980 38.790490 38.973027 39.158242 39.346792 39.537292
39.730381 39.924648 40.120717 40.317164 40.514597 40.711595 40.908753 41.104660
41.299903 41.493096 41.684816 41.873716 42.060363 42.243461 42.423567 42.599447
42.771646 42.939000 43.102044 43.259688 43.412454 43.559334 43.700831 43.836027
43.965399 44.088121 44.204641 44.314224 44.417286 44.513185 44.602295 44.684068
44.758834 44.826137 44.886253 44.938821 44.984061 45.021702 45.051904 45.074487
45.089548 45.096996 45.096863 45.089150 45.073821 45.050967 45.020487 44.982563
44.937030 44.884160 44.823729 44.756100 44.680993 44.598863 44.509378 44.413086
44.309610 44.199590 44.082611 43.959406 43.829524 43.693791 43.551727 43.404251
43.250859 43.092556 42.928819 42.760739 42.587777 42.411100 42.230160 42.046190
41.858635 41.668788 41.476084 41.281869 41.085567 40.888562 40.690271 40.492104
40.293465 40.095781 39.898442 39.702875 39.508458 39.316604 39.126676 38.940062
38.756110 38.576171 38.399575 38.227625 38.059635 37.896852 37.738571 37.585975
37.438344 37.296789 37.160574 37.030733 36.906520 36.788885 36.677076 36.571954
36.472765 36.380280 36.293745 36.213842 36.139819 36.072269 36.010448 35.954859
35.904769 35.860595 35.821619 35.788170 35.759552 35.736010 35.716873 35.702302
35.691656 35.685018 35.681780 35.681947 35.684948 35.690717 35.698724 35.708832
35.720556 35.733692 35.747805 35.762628 35.777778
36.155556 36.145586 36.135982 36.127174 36.119461 36.113332 36.109013 36.107048
36.107588 36.111228 36.118037 36.128658 36.143076 36.161975 36.185252 36.213628
36.246910 36.285849 36.330161 36.380622 36.436851 36.499648 36.568531 36.644317
36.726425 36.815682 36.911407 37.014434 37.123979 37.240878 37.364248 37.494920
37.631914 37.776054 37.926263 38.083354 38.246160 38.415479 38.590060 38.770682
38.956016 39.146824 39.341706 39.541405 39.744461 39.951597 40.161305 40.374289
40.589006 40.806140 41.024128 41.243636 41.463094 41.683153 41.902251 42.121026
42.337938 42.553613 42.766548 42.977360 43.184595 43.388861 43.588765 43.784906
43.975964 44.162528 44.343358 44.519031 44.688395 44.852011 45.008821 45.159364
45.302681 45.439283 45.568315 45.690251 45.804338 45.911013 46.009624 46.100560
46.183274 46.258099 46.324590 46.383021 46.433048 46.474882 46.508275 46.533371
46.550022 46.558300 46.558155 46.549586 46.532640 46.507246 46.473549 46.431404
46.381056 46.322292 46.255457 46.180273 46.097185 46.005857 45.906834 45.799727
45.685185 45.562770 45.433234 45.296100 45.152222 45.001089 44.843657 44.679387
44.509333 44.332936 44.151344 43.963981 43.772085 43.575067 43.374246 43.169022
42.960788 42.748935 42.534918 42.318118 42.100041 41.880060 41.659715 41.438370
41.217588 40.996719 40.777335 40.558772 40.342594 40.128121 39.916899 39.708226
39.503614 39.302345 39.105882 38.913486 38.726564 38.544357 38.368204 38.197325
38.032985 37.874387 37.722711 37.577146 37.438782 37.306798 37.182190 37.064128
36.953513 36.849511 36.752923 36.662919 36.580198 36.503936 36.434734 36.371778
36.315570 36.265311 36.221409 36.183082 36.150644 36.123340 36.101390 36.084069
36.071509 36.063019 36.058644 36.057733 36.060248 36.065581 36.073616 36.083791
36.095917 36.109483 36.124226 36.139694 36.155556
36.533333 36.523479 36.514063 36.505452 36.498152 36.492454 36.488926 36.487776
36.489632 36.494617 36.503409 36.516045 36.533249 36.554964 36.581957 36.614073
36.652118 36.695836 36.746062 36.802437 36.865824 36.935756 37.013117 37.097330
37.189295 37.288325 37.395327 37.509505 37.631769 37.761213 37.898746 38.043351
38.195930 38.355361 38.522534 38.696225 38.877309 39.064465 39.258548 39.458147
39.664098 39.874908 40.091389 40.311978 40.537464 40.766226 40.999027 41.234202
41.472492 41.712200 41.954049 42.196323 42.439728 42.682551 42.925480 43.166818
43.407243 43.645090 43.881024 44.113429 44.342961 44.568067 44.789394 45.005461
45.216909 45.422341 45.622386 45.815742 46.003024 46.183031 46.356358 46.521911
46.680258 46.830417 46.972924 47.106907 47.232862 47.350031 47.458864 47.558712
47.649971 47.732106 47.805448 47.869571 47.924743 47.970643 48.007465 48.034997
48.053358 48.062439 48.062281 48.052883 48.034203 48.006345 47.969192 47.922953
47.867433 47.802948 47.729231 47.646707 47.555040 47.454764 47.345484 47.227844
47.101393 46.966888 46.823832 46.673094 46.514136 46.347939 46.173935 45.993213
45.805180 45.611034 45.410158 45.203855 44.991494 44.774471 44.552144 44.325994
44.095371 43.861831 43.624716 43.385644 43.143948 42.901294 42.657005 42.412781
42.167931 41.924173 41.680802 41.439536 41.199653 40.962855 40.728403 40.497967
40.270785 40.048484 39.830280 39.617741 39.410060 39.208736 39.012939 38.824089
38.641333 38.466005 38.297234 38.136257 37.982187 37.836161 37.697282 37.566582
37.443156 37.327928 37.219992 37.120164 37.027539 36.942826 36.865127 36.795043
36.731691 36.675564 36.625797 36.582780 36.545672 36.514760 36.489233 36.469280
36.454125 36.443859 36.437748 36.435792 36.437298 36.442180 36.449796 36.459974
36.472126 36.486001 36.501068 36.517001 36.533333
36.911111 36.901650 36.892630 36.884568 36.877824 36.872986 36.870329 36.870504
36.873698 36.880622 36.891367 36.906698 36.926608 36.951911 36.982495 37.019217
37.061859 37.111313 37.167252 37.230599 37.300910 37.379134 37.464711 37.558607
37.660145 37.770301 37.888279 38.015061 38.149729 38.293268 38.444637 38.604817
38.772650 38.949103 39.132907 39.325013 39.524042 39.730924 39.944178 40.164713
40.390954 40.623782 40.861539 41.105082 41.352680 41.605162 41.860742 42.120221
42.381772 42.646173 42.911568 43.178716 43.445752 43.713417 43.979856 44.245793
44.509402 44.771395 45.029990 45.285889 45.537371 45.785131 46.027522 46.265231
46.496700 46.722607 46.941493 47.154023 47.358847 47.556612 47.746083 47.927885
48.100899 48.265722 48.421357 48.568362 48.705862 48.834368 48.953128 49.062600
49.162148 49.252170 49.332151 49.402415 49.462566 49.512852 49.552991 49.583152
49.603164 49.613114 49.612943 49.602651 49.582293 49.551782 49.511286 49.460633
49.400106 49.329451 49.249066 49.158622 49.058632 48.948699 48.829455 48.700439
48.562404 48.414834 48.258605 48.093155 47.919480 47.736982 47.546778 47.348239
47.142602 46.929217 46.709432 46.482582 46.250124 46.011379 45.767905 45.519014
45.266352 45.009223 44.749350 44.486029 44.221044 43.953682 43.685771 43.416587
43.147987 42.879232 42.612188 42.346100 42.082826 41.821589 41.564222 41.309927
41.060495 40.815100 40.575479 40.340780 40.112669 39.890269 39.675162 39.466447
39.265615 39.071739 38.886213 38.708088 38.538650 38.376937 38.224121 38.079228
37.943316 37.815405 37.696433 37.585420 37.483189 37.388762 37.302843 37.224468
37.154223 37.091160 37.035752 36.987074 36.945484 36.910088 36.881137 36.857767
36.840126 36.827391 36.819607 36.815997 36.816509 36.820415 36.827571 36.837307
36.849386 36.863201 36.878432 36.894535 36.911111
37.288889 37.280081 37.271794 37.264466 37.258697 37.254835 37.253553 37.255106
37.260231 37.269086 37.282469 37.300432 37.323830 37.352606 37.387662 37.428828
37.477049 37.532039 37.594777 37.664855 37.743283 37.829528 37.924621 38.027903
38.140421 38.261384 38.391852 38.530902 38.679594 38.836877 39.003807 39.179204
39.364113 39.557229 39.759580 39.969740 40.188715 40.414966 40.649474 40.890591
41.139270 41.393769 41.655009 41.921163 42.193123 42.468990 42.749626 43.033079
43.320181 43.608943 43.900173 44.191861 44.484795 44.776965 45.069140 45.359331
45.648294 45.934079 46.217431 46.496458 46.771897 47.041933 47.307293 47.566254
47.819536 48.065518 48.304913 48.536211 48.760112 48.975229 49.182243 49.379893
49.568832 49.747932 49.917811 50.077471 50.227488 50.366994 50.496512 50.615304
50.723831 50.821483 50.908650 50.984847 51.050387 51.104907 51.148635 51.181330
51.203131 51.213917 51.213734 51.202581 51.180409 51.147337 51.103226 51.048313
50.982368 50.905752 50.818150 50.720045 50.611044 50.491756 50.361718 50.221665
50.071073 49.910806 49.740287 49.560514 49.370863 49.172465 48.964662 48.748713
48.523936 48.291718 48.051356 47.804359 47.550012 47.289937 47.023410 46.752157
46.475448 46.195097 45.910369 45.623154 45.332709 45.040984 44.747224 44.453420
44.158802 43.865385 43.572380 43.281802 42.992844 42.707502 42.424942 42.147125
41.873191 41.605046 41.341801 41.085292 40.834600 40.591480 40.354981 40.126763
39.905848 39.693792 39.489590 39.294686 39.108054 38.931018 38.762537 38.603810
38.453787 38.313539 38.182011 38.060148 37.946894 37.843067 37.747620 37.661242
37.582902 37.513165 37.451018 37.396904 37.349839 37.310147 37.276876 37.250235
37.229313 37.214205 37.204047 37.198829 37.197736 37.200656 37.206832 37.216052
37.227623 37.241241 37.256280 37.272347 37.288889
37.666667 37.658828 37.651509 37.645318 37.640682 37.638289 37.638469 37.641984
37.649060 37.660529 37.676507 37.697886 37.724672 37.757809 37.797184 37.843791
37.897393 37.959024 38.028320 38.106350 38.192617 38.288217 38.392517 38.506634
38.629796 38.763133 38.905734 39.058732 39.221076 39.393898 39.576008 39.768525
39.970123 40.181908 40.402418 40.632735 40.871273 41.119087 41.374467 41.638440
41.909186 42.187697 42.472055 42.763217 43.059180 43.360868 43.666209 43.976094
44.288400 44.603987 44.920703 45.239382 45.557862 45.876954 46.194507 46.511317
46.825266 47.137136 47.444865 47.749225 48.048227 48.342637 48.630558 48.912752
49.187425 49.455334 49.714804 49.966583 50.209125 50.443161 50.667281 50.882196
51.086633 51.281273 51.464986 51.638411 51.800561 51.952023 52.091948 52.220867
52.338066 52.444003 52.538101 52.620738 52.691469 52.750584 52.797767 52.833213
52.856734 52.868429 52.868233 52.856147 52.832230 52.796382 52.748790 52.689256
52.618092 52.535008 52.440445 52.334023 52.216319 52.086871 51.946388 51.794341
51.631577 51.457503 51.273106 51.077745 50.872547 50.656831 50.431866 50.196940
49.953462 49.700698 49.440192 49.171196 48.895383 48.611996 48.322826 48.027111
47.726749 47.420971 47.111769 46.798367 46.482831 46.164378 45.845127 45.524284
45.204002 44.883470 44.564854 44.247322 43.933030 43.621121 43.313722 43.009946
42.711871 42.418577 42.132076 41.851413 41.578517 41.312400 41.054894 40.804976
40.564370 40.332024 40.109543 39.895848 39.692417 39.498151 39.314396 39.140037
38.976285 38.822014 38.678299 38.544011 38.420086 38.305400 38.200752 38.105028
38.018893 37.941248 37.872628 37.811960 37.759646 37.714648 37.677241 37.646424
37.622354 37.604074 37.591623 37.584097 37.581422 37.582752 37.587906 37.596101
37.607055 37.620055 37.634721 37.650415 37.666667
38.044444 38.037865 38.031894 38.027045 38.024015 38.023217 38.025430 38.030959
38.040660 38.054725 38.074078 38.098792 38.129854 38.167213 38.211910 38.263764
38.323865 38.391898 38.468990 38.554689 38.650154 38.754790 38.869780 38.994383
39.129797 39.275133 39.431599 39.598152 39.776002 39.963957 40.163216 40.372441
40.592815 40.822854 41.063717 41.313781 41.574176 41.843145 42.121786 42.408216
42.703496 43.005630 43.315640 43.631430 43.953983 44.281121 44.613787 44.949738
45.289883 45.631934 45.976768 46.322075 46.668706 47.014351 47.359842 47.702893
48.044320 48.381885 48.716394 49.045680 49.370543 49.688905 50.001563 50.306549
50.604655 50.894035 51.175478 51.447272 51.710195 51.962680 52.205489 52.437201
52.658556 52.868282 53.067084 53.253843 53.429216 53.592235 53.743497 53.882185