# vtk DataFile Version 3.0
Steady-state temperature (Jacobi)
ASCII
DATASET STRUCTURED_POINTS
DIMENSIONS 181 181 1
ORIGIN 0.0 0.0 0.0
SPACING 0.05 0.05 1.0
POINT_DATA 32761
SCALARS Temperature float 1
LOOKUP_TABLE default
32.000000 32.000000 32.000000 32.000000 32.000000 32.000000 32.000000 32.000000
32.000000 32.000000 32.000000 32.000000 32.000000 32.000000 32.000000 32.000000
32.000000 32.000000 32.000000 32.000000 32.000000 32.000000 32.000000 32.000000
32.000000 32.000000 32.000000 32.000000 32.000000 32.000000 32.000000 32.000000
32.000000 32.000000 32.000000 32.000000 32.000000 32.000000 32.000000 32.000000
32.000000 32.000000 32.000000 32.000000 32.000000 32.000000 32.000000 32.000000
32.000000 32.000000 32.000000 32.000000 32.000000 32.000000 32.000000 32.000000
32.000000 32.000000 32.000000 32.000000 32.000000 32.000000 32.000000 32.000000
32.000000 32.000000 32.000000 32.000000 32.000000 32.000000 32.000000 32.000000
32.000000 32.000000 32.000000 32.000000 32.000000 32.000000 32.000000 32.000000
32.000000 32.000000 32.000000 32.000000 32.000000 32.000000 32.000000 32.000000
32.000000 32.000000 32.000000 32.000000 32.000000 32.000000 32.000000 32.000000
32.000000 32.000000 32.000000 32.000000 32.000000 32.000000 32.000000 32.000000
32.000000 32.000000 32.000000 32.000000 32.000000 32.000000 32.000000 32.000000
32.000000 32.000000 32.000000 32.000000 32.000000 32.000000 32.000000 32.000000
32.000000 32.000000 32.000000 32.000000 32.000000 32.000000 32.000000 32.000000
32.000000 32.000000 32.000000 32.000000 32.000000 32.000000 32.000000 32.000000
32.000000 32.000000 32.000000 32.000000 32.000000 32.000000 32.000000 32.000000
32.000000 32.000000 32.000000 32.000000 32.000000 32.000000 32.000000 32.000000
32.000000 32.000000 32.000000 32.000000 32.000000 32.000000 32.000000 32.000000
32.000000 32.000000 32.000000 32.000000 32.000000 32.000000 32.000000 32.000000
32.000000 32.000000 32.000000 32.000000 32.000000 32.000000 32.000000 32.000000
32.000000 32.000000 32.000000 32.000000 32.000000
32.377778 32.392618 32.407479 32.422386 32.437357 32.452418 32.467583 32.482884
32.498328 32.513949 32.529751 32.545769 32.562003 32.578489 32.595222 32.612239
32.629531 32.647134 32.665035 32.683270 32.701822 32.720725 32.739957 32.759552
32.779482 32.799782 32.820417 32.841420 32.862753 32.884447 32.906457 32.928814
32.951468 32.974448 32.997699 33.021247 33.045034 33.069083 33.093332 33.117803
33.142429 33.167229 33.192134 33.217161 33.242239 33.267382 33.292517 33.317656
33.342725 33.367734 33.392609 33.417359 33.441909 33.466267 33.490359 33.514194
33.537698 33.560878 33.583663 33.606062 33.628005 33.649501 33.670483 33.690960
33.710871 33.730223 33.748959 33.767087 33.784555 33.801371 33.817488 33.832913
33.847604 33.861569 33.874770 33.887215 33.898872 33.909747 33.919813 33.929077
33.937515 33.945133 33.951912 33.957858 33.962956 33.967210 33.970610 33.973159
33.974849 33.975684 33.975660 33.974778 33.973039 33.970443 33.966995 33.962693
33.957547 33.951552 33.944724 33.937057 33.928570 33.919257 33.909141 33.898216
33.886509 33.874013 33.860761 33.846745 33.832004 33.816528 33.800360 33.783494
33.765975 33.747797 33.729011 33.709610 33.689652 33.669128 33.648099 33.626559
33.604573 33.582133 33.559308 33.536092 33.512554 33.488688 33.464568 33.440185
33.415615 33.390849 33.365963 33.340948 33.315879 33.290745 33.265623 33.240499
33.215447 33.190454 33.165591 33.140842 33.116277 33.091878 33.067710 33.043753
33.020071 32.996639 32.973518 32.950681 32.928183 32.905998 32.884174 32.862683
32.841570 32.820802 32.800421 32.780393 32.760754 32.741468 32.722567 32.704013
32.685833 32.667989 32.650502 32.633335 32.616502 32.599967 32.583739 32.567781
32.552100 32.536658 32.521457 32.506461 32.491666 32.477039 32.462571 32.448232
32.434008 32.419870 32.405803 32.391778 32.377778
32.755556 32.785252 32.814995 32.844822 32.874786 32.904919 32.935277 32.965886
32.996805 33.028052 33.059691 33.091730 33.124236 33.157208 33.190716 33.224750
33.259379 33.294584 33.330436 33.366904 33.404060 33.441863 33.480383 33.519569
33.559490 33.600085 33.641419 33.683421 33.726155 33.769537 33.813629 33.858339
33.903722 33.949677 33.996256 34.043349 34.091003 34.139098 34.187679 34.236617
34.285953 34.335552 34.385448 34.435501 34.485743 34.536028 34.586384 34.636661
34.686884 34.736903 34.786737 34.836237 34.885420 34.934136 34.982402 35.030071
35.077156 35.123515 35.169161 35.213956 35.257913 35.300901 35.342932 35.383883
35.423766 35.462464 35.499994 35.536245 35.571233 35.604859 35.637139 35.667982
35.697406 35.725329 35.751767 35.776651 35.799996 35.821739 35.841898 35.860419
35.877316 35.892547 35.906123 35.918011 35.928220 35.936725 35.943533 35.948627
35.952013 35.953681 35.953634 35.951870 35.948389 35.943199 35.936295 35.927694
35.917388 35.905404 35.891730 35.876402 35.859406 35.840786 35.820528 35.798684
35.775239 35.750254 35.723714 35.695690 35.666165 35.635220 35.602838 35.569111
35.534022 35.497671 35.460042 35.421246 35.381267 35.340222 35.298099 35.255022
35.210979 35.166102 35.120378 35.073946 35.026792 34.979062 34.930740 34.881976
34.832752 34.783221 34.733364 34.683333 34.633109 34.582843 34.532511 34.482264
34.432074 34.382089 34.332278 34.282783 34.233569 34.184772 34.136354 34.088444
34.040999 33.994140 33.947819 33.902150 33.857081 33.812715 33.768996 33.726019
33.683724 33.642195 33.601367 33.561318 33.521977 33.483412 33.445550 33.408449
33.372034 33.336351 33.301327 33.266996 33.233284 33.200215 33.167716 33.135802
33.104400 33.073515 33.043077 33.013081 32.983460 32.954201 32.925238 32.896551
32.868079 32.839792 32.811637 32.783574 32.755556
33.133333 33.177923 33.222577 33.267368 33.312349 33.357604 33.403173 33.449146
33.495554 33.542491 33.589976 33.638107 33.686890 33.736429 33.786713 33.837850
33.889815 33.942715 33.996513 34.051316 34.107071 34.163883 34.221684 34.280579
34.340482 34.401496 34.463521 34.526653 34.590778 34.655989 34.722154 34.789361
34.857465 34.926547 34.996447 35.067241 35.138755 35.211059 35.283966 35.357539
35.431581 35.506147 35.581031 35.656282 35.731686 35.807286 35.882862 35.958450
36.033827 36.109025 36.183820 36.258237 36.332053 36.405291 36.477729 36.549390
36.620055 36.689745 36.758249 36.825585 36.891552 36.956169 37.019243 37.080794
37.140642 37.198806 37.255118 37.309600 37.362097 37.412631 37.461062 37.507412
37.551554 37.593513 37.633175 37.670565 37.705583 37.738254 37.768491 37.796318
37.821663 37.844546 37.864908 37.882767 37.898079 37.910856 37.921067 37.928720
37.933798 37.936304 37.936233 37.933584 37.928363 37.920566 37.910212 37.897291
37.881835 37.863830 37.843322 37.820293 37.794800 37.766825 37.736439 37.703618
37.668449 37.630908 37.591094 37.548983 37.504688 37.458186 37.409603 37.358917
37.306269 37.251637 37.195176 37.136866 37.076874 37.015182 36.951970 36.887220
36.821124 36.753664 36.685044 36.615244 36.544477 36.472723 36.400201 36.326890
36.253014 36.178549 36.103722 36.028505 35.953127 35.877555 35.802015 35.726472
35.651147 35.575998 35.501242 35.426831 35.352972 35.279612 35.206950 35.134924
35.063723 34.993279 34.923768 34.855114 34.787482 34.720790 34.655187 34.590584
34.527118 34.464694 34.403432 34.343233 34.284204 34.226239 34.169429 34.113667
34.059028 34.005402 33.952848 33.901256 33.850670 33.800979 33.752212 33.704260
33.657137 33.610735 33.565056 33.519995 33.475538 33.431587 33.388115 33.345028
33.302289 33.259809 33.217540 33.175401 33.133333
33.511111 33.570643 33.630267 33.690062 33.750131 33.810539 33.871399 33.932761
33.994747 34.057392 34.120823 34.185057 34.250230 34.316339 34.383524 34.451763
34.521199 34.591791 34.663682 34.736812 34.811323 34.887134 34.964386 35.042977
35.123044 35.204464 35.287371 35.371620 35.457339 35.544364 35.632815 35.722507
35.813554 35.905751 35.999204 36.093690 36.189304 36.285807 36.383287 36.481487
36.580486 36.680016 36.780143 36.880589 36.981413 37.082326 37.183380 37.284279
37.385067 37.485446 37.585453 37.684789 37.783486 37.881246 37.978099 38.073751
38.168230 38.261247 38.352831 38.442704 38.530891 38.617130 38.701445 38.783586
38.863582 38.941199 39.016464 39.089161 39.159321 39.226745 39.291466 39.353302
39.412287 39.468261 39.521256 39.571130 39.617917 39.661493 39.701890 39.739003
39.772861 39.803378 39.830579 39.854395 39.874848 39.891886 39.905525 39.915732
39.922514 39.925857 39.925762 39.922229 39.915256 39.904860 39.891029 39.873799
39.853154 39.829144 39.801749 39.771037 39.736982 39.699672 39.659077 39.615301
39.568313 39.518237 39.465040 39.408864 39.349676 39.287637 39.222713 39.155087
39.084726 39.011829 38.936366 38.858554 38.778366 38.696037 38.611538 38.525122
38.436763 38.346726 38.254987 38.161823 38.067208 37.971433 37.874468 37.776612
37.677834 37.578435 37.478383 37.377981 37.277191 37.176314 37.075308 36.974471
36.873752 36.773444 36.673487 36.574164 36.475409 36.377493 36.280340 36.184208
36.089011 35.994994 35.902059 35.810436 35.720017 35.631013 35.543310 35.457099
35.372257 35.288955 35.207064 35.126735 35.047831 34.970484 34.894553 34.820146
34.747120 34.675564 34.605331 34.536488 34.468889 34.402582 34.337420 34.273431
34.210471 34.148549 34.087524 34.027386 33.968001 33.909341 33.851277 33.793766
33.736687 33.679981 33.623537 33.567280 33.511111
33.888889 33.963436 34.038089 34.112973 34.188177 34.263836 34.340024 34.416888
34.494481 34.572959 34.652355 34.732834 34.814406 34.897243 34.981330 35.066845
35.153748 35.242220 35.332196 35.423855 35.517111 35.612139 35.708826 35.807346
35.907559 36.009634 36.113405 36.219034 36.326329 36.435445 36.546164 36.658631
36.772605 36.888220 37.005210 37.123701 37.243403 37.364429 37.486472 37.609631
37.733581 37.858411 37.983778 38.109760 38.236002 38.362572 38.489105 38.615657
38.741858 38.867757 38.992980 39.117568 39.241148 39.363757 39.485025 39.604984
39.723273 39.839923 39.954582 40.067281 40.177681 40.285813 40.391357 40.494344
40.594473 40.691777 40.785975 40.877104 40.964904 41.049415 41.130399 41.207897
41.281698 41.351841 41.418140 41.480634 41.539160 41.593758 41.644286 41.690782
41.733128 41.771357 41.805375 41.835209 41.860786 41.882129 41.899184 41.911968
41.920450 41.924637 41.924518 41.920094 41.911376 41.898354 41.881060 41.859478
41.833661 41.803586 41.769325 41.730852 41.688261 41.641519 41.590743 41.535896
41.477120 41.414374 41.347823 41.277427 41.203373 41.125621 41.044384 40.959621
40.871570 40.780191 40.685746 40.588198 40.487830 40.384608 40.278835 40.170481
40.059867 39.946963 39.832110 39.715277 39.596819 39.476704 39.355298 39.232568
39.108888 38.984221 38.858943 38.733014 38.606812 38.480287 38.353816 38.227341
38.101231 37.975420 37.850267 37.725695 37.602052 37.479248 37.357615 37.237053
37.117875 36.999969 36.883628 36.768729 36.655544 36.543936 36.434156 36.326055
36.219861 36.115415 36.012918 35.912206 35.813452 35.716485 35.621453 35.528180
35.436786 35.347093 35.259195 35.172910 35.088309 35.005210 34.923658 34.843471
34.764672 34.687083 34.610702 34.535358 34.461025 34.387540 34.314856 34.242819
34.171362 34.100341 34.029671 33.959221 33.888889
34.266667 34.356309 34.446091 34.536130 34.626582 34.717547 34.809194 34.901599
34.994946 35.089286 35.184814 35.281555 35.379713 35.479284 35.580479 35.683268
35.787863 35.894206 36.002510 36.112686 36.224948 36.339175 36.455580 36.574008
36.694668 36.817375 36.942329 37.069314 37.198522 37.329706 37.463047 37.598268
37.735538 37.874552 38.015465 38.157944 38.302131 38.447668 38.594682 38.742791
38.892109 39.042234 39.193264 39.344780 39.496868 39.649096 39.801535 39.953744
40.105784 40.257207 40.408066 40.557911 40.706787 40.854246 41.000330 41.144598
41.287086 41.427364 41.565469 41.700985 41.833949 41.963963 42.091066 42.214881
42.335449 42.452419 42.565833 42.675366 42.781064 42.882629 42.980109 43.073235
43.162056 43.246334 43.326117 43.401195 43.471616 43.537199 43.597991 43.653836
43.704779 43.750691 43.791611 43.827439 43.858204 43.883832 43.904346 43.919697
43.929899 43.934926 43.934784 43.929473 43.918988 43.903352 43.882552 43.856638
43.825585 43.789469 43.748259 43.702055 43.650819 43.594678 43.533590 43.467709
43.396988 43.321609 43.241524 43.156943 43.067818 42.974388 42.876605 42.774738
42.668739 42.558907 42.445197 42.327936 42.207080 42.082984 41.955607 41.825326
41.692106 41.556344 41.418006 41.277508 41.134817 40.990365 40.844115 40.696511
40.547514 40.397576 40.246650 40.095193 39.943150 39.790977 39.638610 39.486498
39.334568 39.183259 39.032485 38.882672 38.733722 38.586041 38.439518 38.294541
38.150982 38.009207 37.869074 37.730923 37.594598 37.460412 37.328197 37.198236
37.070348 36.944787 36.821362 36.700295 36.581386 36.464827 36.350409 36.238294
36.128266 36.020456 35.914646 35.810935 35.709104 35.609222 35.511069 35.414687
35.319858 35.226595 35.134687 35.044118 34.954685 34.866345 34.778906 34.692300
34.606347 34.520956 34.435960 34.351247 34.266667
34.644444 34.749290 34.854287 34.959607 35.065379 35.171795 35.278955 35.387069
35.496210 35.606601 35.718287 35.831501 35.946257 36.062797 36.181103 36.301422
36.423703 36.548196 36.674814 36.803809 36.935059 37.068811 37.204908 37.343594
37.484674 37.628384 37.774492 37.923227 38.074319 38.227985 38.383921 38.542329
38.702872 38.865736 39.030550 39.197486 39.366142 39.536672 39.708644 39.882199
40.056877 40.232801 40.409490 40.587051 40.764986 40.943384 41.121734 41.300112
41.477996 41.655452 41.831953 42.007555 42.181732 42.354532 42.525435 42.694484
42.861170 43.025532 43.187077 43.345845 43.501361 43.653666 43.802310 43.947335
44.088319 44.225307 44.357907 44.486167 44.609727 44.728639 44.842575 44.951591
45.055391 45.154033 45.247256 45.335118 45.417391 45.494131 45.565143 45.630481
45.689982 45.743693 45.791483 45.833391 45.869319 45.899295 45.923250 45.941206
45.953118 45.958999 45.958834 45.952623 45.940380 45.922094 45.897807 45.867497
45.831236 45.788991 45.740864 45.686813 45.626971 45.561290 45.489932 45.412845
45.330224 45.242011 45.148437 45.049442 44.945288 44.835919 44.721630 44.602366
44.478456 44.349847 44.216903 44.079574 43.938256 43.792903 43.643940 43.491324
43.335510 43.176455 43.014639 42.850021 42.683100 42.513834 42.342739 42.169771
41.995454 41.819742 41.643165 41.465668 41.287783 41.109445 40.931182 40.752918
40.575171 40.397851 40.221463 40.045902 39.871655 39.698600 39.527203 39.357326
39.189407 39.023291 38.859391 38.697533 38.538098 38.380897 38.226279 38.074040
37.924493 37.777421 37.633101 37.491305 37.352275 37.215771 37.081999 36.950711
36.822077 36.695843 36.572144 36.450722 36.331676 36.214749 36.100004 35.987187
35.876326 35.767173 35.659723 35.553735 35.449174 35.345808 35.243572 35.142247
35.041740 34.941849 34.842452 34.743365 34.644444
35.022222 35.142383 35.262729 35.383423 35.504672 35.626610 35.749465 35.873341
35.998483 36.124961 36.253037 36.382745 36.514358 36.647875 36.783576 36.921423
37.061701 37.204332 37.349603 37.497396 37.647998 37.801249 37.957431 38.116344
38.278261 38.442941 38.610649 38.781099 38.954545 39.130661 39.309685 39.491251
39.675581 39.862269 40.051520 40.242892 40.436570 40.632076 40.829578 41.028566
41.229187 41.430905 41.633846 41.837451 42.041829 42.246402 42.451261 42.655815
42.860140 43.063637 43.266370 43.467737 43.667793 43.865939 44.062223 44.256057
44.447482 44.635926 44.821429 45.003440 45.181999 45.356579 45.527224 45.693436
45.855263 46.012240 46.164418 46.311368 46.453148 46.589363 46.720077 46.844933
46.963997 47.076952 47.183865 47.284459 47.378798 47.466644 47.548059 47.622842
47.691050 47.752517 47.807293 47.855249 47.896425 47.930725 47.958178 47.978722
47.992374 47.999103 47.998915 47.991810 47.977782 47.956862 47.929030 47.894351
47.852794 47.804456 47.749295 47.687441 47.618844 47.543671 47.461862 47.373621
47.278884 47.177891 47.070577 46.957219 46.837753 46.712493 46.581377 46.444760
46.302581 46.155234 46.002662 45.845298 45.683089 45.516504 45.345493 45.170560
44.991659 44.809323 44.623509 44.434775 44.243079 44.049000 43.852496 43.654159
43.453943 43.252452 43.049632 42.846090 42.641763 42.437258 42.232497 42.028080
41.823915 41.620588 41.417991 41.216691 41.016563 40.818149 40.621305 40.426548
40.233712 40.043283 39.855075 39.669542 39.486478 39.306298 39.128781 38.954302
38.782622 38.614079 38.448417 38.285932 38.126357 37.969947 37.816423 37.665999
37.518387 37.373761 37.231828 37.092719 36.956141 36.822184 36.690556 36.561308
36.434151 36.309099 36.185869 36.064440 35.944538 35.826106 35.708885 35.592785
35.477562 35.363094 35.249157 35.135601 35.022222
35.400000 35.535615 35.671426 35.807657 35.944475 36.082127 36.220748 36.360605
36.501799 36.644613 36.789111 36.935592 37.084078 37.234880 37.387978 37.543691
37.701955 37.863093 38.026997 38.193989 38.363915 38.537095 38.713329 38.892929
39.075648 39.261789 39.451057 39.643743 39.839505 40.038618 40.240695 40.445992
40.654078 40.865189 41.078851 41.295280 41.513959 41.735083 41.958099 42.183179
42.409735 42.637917 42.867108 43.097437 43.328262 43.559693 43.791070 44.022483
44.253259 44.483475 44.712452 44.940251 45.166197 45.390341 45.612014 45.831262
46.047430 46.260561 46.470019 46.675848 46.877438 47.074836 47.267462 47.455367
47.638007 47.815439 47.987157 48.153224 48.313177 48.467081 48.614519 48.755560
48.889830 49.017402 49.137945 49.251533 49.357879 49.457055 49.548815 49.633229
49.710091 49.779464 49.841183 49.895301 49.941691 49.980394 50.011322 50.034502
50.049882 50.057475 50.057265 50.049250 50.033449 50.009846 49.978495 49.939367
49.892550 49.838004 49.775854 49.706047 49.628749 49.543897 49.451696 49.352076
49.245285 49.131249 49.010256 48.882233 48.747511 48.606018 48.458128 48.303773
48.143372 47.976859 47.804700 47.626833 47.443764 47.255439 47.062404 46.864609
46.662636 46.456440 46.246635 46.033177 45.816707 45.597182 45.375263 45.150903
44.924780 44.696840 44.467768 44.237501 44.006725 43.775366 43.544103 43.312846
43.082263 42.852247 42.623447 42.395735 42.169737 41.945303 41.723032 41.502750
41.285023 41.069655 40.857173 40.647361 40.440706 40.236968 40.036593 39.839323
39.645556 39.455016 39.268058 39.084389 38.904316 38.727533 38.554301 38.384303
38.217753 38.054327 37.894193 37.737021 37.582934 37.431602 37.283102 37.137108
36.993653 36.852417 36.713391 36.576264 36.440987 36.307263 36.175004 36.043930
35.913916 35.784700 35.656127 35.527956 35.400000
35.777778 35.928988 36.080433 36.232316 36.384901 36.538358 36.692973 36.848878
37.006383 37.165579 37.326792 37.490072 37.655758 37.823854 37.994710 38.168283
38.344929 38.524555 38.707521 38.893683 39.083398 39.276472 39.473256 39.673504
39.877556 40.085115 40.296510 40.511389 40.730064 40.952134 41.177892 41.406883
41.639382 41.874885 42.113641 42.355101 42.599490 42.846214 43.095473 43.346634
43.599870 43.854514 44.110713 44.367769 44.625809 44.884108 45.142771 45.401056
45.659050 45.916001 46.171978 46.426226 46.678803 46.928959 47.176742 47.421415
47.663020 47.900840 48.134917 48.364558 48.589808 48.810006 49.025201 49.234772
49.438772 49.636620 49.828380 50.013516 50.192096 50.363633 50.528203 50.685366
50.835203 50.977325 51.111812 51.238327 51.356949 51.467387 51.569720 51.663702
51.749405 51.826629 51.895436 51.955670 52.007382 52.050455 52.084928 52.110724
52.127866 52.136317 52.136085 52.127168 52.109559 52.083296 52.048354 52.004812
51.952627 51.891920 51.822635 51.744932 51.658746 51.564280 51.461458 51.350529
51.231413 51.104403 50.969417 50.826797 50.676459 50.518795 50.353724 50.181688
50.002610 49.816981 49.624732 49.426401 49.221926 49.011891 48.796241 48.575603
48.349928 48.119881 47.885418 47.647237 47.405295 47.160317 46.912260 46.661868
46.409092 46.154691 45.898607 45.641602 45.383609 45.125385 44.866848 44.608746
44.350976 44.094271 43.838506 43.584389 43.331772 43.081334 42.832902 42.587120
42.343789 42.103513 41.866069 41.632017 41.401108 41.173858 40.949992 40.729979
40.513521 40.301038 40.092212 39.887411 39.686300 39.489196 39.295750 39.106226
38.920267 38.738082 38.559309 38.384106 38.212107 38.043421 37.877681 37.714948
37.554860 37.397430 37.242306 37.089454 36.938534 36.789470 36.641937 36.495817
36.350807 36.206750 36.063365 35.920459 35.777778
36.155556 36.322530 36.489749 36.657486 36.825950 36.995445 37.166138 37.338361
37.512238 37.688120 37.866086 38.046506 38.229409 38.415177 38.603791 38.795641
38.990654 39.189224 39.391225 39.597051 39.806518 40.020017 40.237308 40.458772
40.684111 40.913695 41.147168 41.384882 41.626425 41.872129 42.121524 42.374921
42.631796 42.892432 43.156252 43.423514 43.693590 43.966710 44.242199 44.520258
44.800170 45.082109 45.365320 45.649950 45.935215 46.221234 46.507200 46.793211
47.078443 47.362974 47.645973 47.927503 48.206733 48.483713 48.757624 49.028507
49.295560 49.558824 49.817520 50.071691 50.320590 50.564264 50.802006 51.033870
51.259195 51.478040 51.689794 51.894526 52.091676 52.281321 52.462956 52.636664
52.801995 52.959037 53.107393 53.247154 53.377976 53.499949 53.612781 53.716557
53.811033 53.896288 53.972127 54.038615 54.095603 54.143143 54.181130 54.209600
54.228490 54.237818 54.237564 54.227726 54.208326 54.179345 54.140845 54.092790
54.035285 53.968278 53.891917 53.806137 53.711132 53.606825 53.493459 53.370948
53.239585 53.099281 52.950379 52.792790 52.626910 52.452652 52.270469 52.080276
51.882581 51.677307 51.465017 51.245642 51.019797 50.787422 50.549182 50.305025
50.055660 49.801044 49.541925 49.278263 49.010842 48.739622 48.465413 48.188172
47.908727 47.627028 47.343914 47.059323 46.774094 46.488151 46.202327 45.916524
45.631561 45.347317 45.064587 44.783227 44.504001 44.226738 43.952165 43.680081
43.411176 43.145217 42.882848 42.623808 42.368692 42.117211 41.869907 41.626467
41.387376 41.152299 40.921664 40.695117 40.473028 40.255025 40.041422 39.831833
39.626514 39.425070 39.227700 39.034002 38.844122 38.657656 38.474693 38.294833
38.118113 37.944140 37.772899 37.604008 37.437405 37.272722 37.109851 36.948444
36.788348 36.629240 36.470925 36.313107 36.155556
36.533333 36.716240 36.899433 37.083159 37.267738 37.453376 37.640423 37.829040
38.019601 38.212220 38.407291 38.604878 38.805391 39.008839 39.215645 39.425761
39.639616 39.857104 40.078658 40.304110 40.533889 40.767768 41.006167 41.248796
41.496065 41.747620 42.003854 42.264351 42.529483 42.798772 43.072565 43.350324
43.632369 43.918102 44.207816 44.500852 44.797474 45.096972 45.399576 45.704526
46.012021 46.321258 46.632404 46.944620 47.258042 47.571801 47.886008 48.199770
48.513173 48.825314 49.136259 49.445100 49.751887 50.055719 50.356636 50.653750
50.947099 51.235817 51.519941 51.798640 52.071952 52.339087 52.600091 52.854220
53.101530 53.341328 53.573681 53.797952 54.014219 54.221904 54.421093 54.611268
54.792524 54.964403 55.127003 55.279924 55.423267 55.556690 55.680290 55.793779
55.897249 55.990465 56.073507 56.146190 56.208582 56.260546 56.302131 56.333247
56.353926 56.364122 56.363846 56.353097 56.331865 56.300194 56.258052 56.205531
56.142578 56.069331 55.985723 55.891937 55.787894 55.673828 55.549648 55.415641
55.271710 55.118199 54.955006 54.782533 54.600680 54.409908 54.210122 54.001842
53.784982 53.560122 53.327186 53.086812 52.838935 52.584251 52.322705 52.055045
51.781225 51.502042 51.217457 50.928308 50.634558 50.337079 50.035835 49.731722
49.424699 49.115678 48.804607 48.492404 48.179003 47.865320 47.551267 47.237748
46.924654 46.612864 46.302243 45.993643 45.686897 45.382821 45.081217 44.782858
44.487513 44.195907 43.907777 43.623796 43.343669 43.068013 42.796503 42.529696
42.267241 42.009635 41.756501 41.508273 41.264555 41.025718 40.791348 40.561753
40.336507 40.115855 39.899361 39.687212 39.478965 39.274747 39.074118 38.877143
38.683389 38.492864 38.305145 38.120186 37.937577 37.757222 37.578729 37.401953
37.226526 37.052256 36.878802 36.705931 36.533333
36.911111 37.110148 37.309476 37.509426 37.710247 37.912304 38.115799 38.321126
38.528438 38.738152 38.950368 39.165524 39.383663 39.605237 39.830230 40.059103
40.291779 40.528723 40.769792 41.015453 41.265497 41.520383 41.779837 42.044305
42.313445 42.587690 42.866626 43.150668 43.439332 43.733010 44.031150 44.334114
44.641288 44.953000 45.268572 45.588301 45.911446 46.238270 46.567977 46.900794
47.235872 47.573404 47.912498 48.253310 48.594913 48.937432 49.279910 49.622442
49.964054 50.304818 50.643747 50.980895 51.315277 51.646933 51.974888 52.299176
52.618842 52.933917 53.243480 53.547562 53.845284 54.136684 54.420929 54.698070
54.967328 55.228765 55.481664 55.726098 55.961413 56.187697 56.404360 56.611499
56.808590 56.995739 57.172487 57.338943 57.494711 57.639900 57.774174 57.897639
58.010017 58.111402 58.201574 58.280613 58.348350 58.404850 58.449993 58.483823
58.506270 58.517357 58.517060 58.505378 58.482335 58.447907 58.402166 58.345065
58.276724 58.197078 58.106297 58.004297 57.891302 57.767215 57.632315 57.486497
57.330096 57.163004 56.985617 56.797826 56.600091 56.392308 56.175002 55.948075
55.712120 55.467050 55.213522 54.951462 54.681592 54.403851 54.119021 53.827053
53.528785 53.224177 52.914118 52.598575 52.278477 51.953795 51.625489 51.293528
50.958894 50.621549 50.282487 49.941656 49.600052 49.257603 48.915297 48.573038
48.231795 47.891444 47.552926 47.216084 46.881824 46.549955 46.221338 45.895748
45.573995 45.255818 44.941971 44.632159 44.327076 44.026391 43.730737 43.439752
43.154002 42.873096 42.597534 42.326900 42.061625 41.801271 41.546203 41.295965
41.050854 40.810402 40.574839 40.343690 40.117118 39.894647 39.676375 39.461829
39.251045 39.043557 38.839341 38.637945 38.439288 38.242934 38.048749 37.856319
37.665459 37.475782 37.287055 37.098924 36.911111
37.288889 37.504245 37.719939 37.936266 38.153602 38.372194 38.592453 38.814574
39.038996 39.265860 39.495628 39.728381 39.964599 40.204303 40.447985 40.695598
40.947645 41.204010 41.465196 41.731019 42.001977 42.277814 42.559020 42.845265
43.137024 43.433893 43.736328 44.043850 44.356890 44.674897 44.998272 45.326391
45.659623 45.997274 46.339675 46.686067 47.036742 47.390877 47.748727 48.109407
48.473135 48.838973 49.207100 49.576534 49.947417 50.318730 50.690583 51.061930
51.432851 51.802285 52.170287 52.535792 52.898836 53.258361 53.614393 53.965889
54.312872 54.654328 54.990281 55.319757 55.642785 55.958441 56.266765 56.566889
56.858868 57.141897 57.416045 57.680577 57.935576 58.180377 58.415079 58.639087
58.852510 59.054827 59.246154 59.426037 59.594596 59.751445 59.896700 60.030041
60.151575 60.261041 60.358537 60.443858 60.517084 60.578064 60.626859 60.663369
60.687632 60.699598 60.699280 60.686678 60.661777 60.624629 60.575193 60.513570
60.439698 60.353728 60.255579 60.145456 60.023260 59.889255 59.743329 59.585807
59.416569 59.236005 59.043993 58.840989 58.626875 58.402177 58.166784 57.921294
57.665608 57.400395 57.125570 56.841874 56.549238 56.248470 55.939517 55.623252
55.299636 54.969598 54.633111 54.291154 53.943706 53.591787 53.235378 52.875528
52.512212 52.146499 51.778353 51.408851 51.037938 50.666686 50.295017 49.923989
49.553494 49.184563 48.817056 48.451968 48.089122 47.729469 47.372795 47.019998
46.670824 46.326113 45.985572 45.649980 45.319002 44.993351 44.672658 44.357565
44.047669 43.743540 43.444746 43.151784 42.864194 42.582402 42.305927 42.035120
41.769484 41.509298 41.254054 41.003959 40.758500 40.517813 40.281386 40.049286
39.821007 39.596551 39.375421 39.157558 38.942481 38.730070 38.519866 38.311692
38.105116 37.899908 37.695668 37.492117 37.288889
37.666667 37.898564 38.130804 38.363772 38.597763 38.833202 39.070329 39.309603
39.551207 39.795627 40.042987 40.293793 40.548105 40.806446 41.068806 41.335720
41.607108 41.883507 42.164763 42.451413 42.743227 43.040734 43.343626 43.652420
43.966727 44.287045 44.612907 44.944786 45.282135 45.625397 45.973947 46.328194
46.687435 47.052042 47.421237 47.795351 48.173536 48.556079 48.942065 49.331740
49.724126 50.119427 50.516613 50.915843 51.316045 51.717339 52.118617 52.519966
52.920254 53.319538 53.716673 54.111696 54.503462 54.891990 55.276150 55.655952
56.030292 56.399180 56.761547 57.117411 57.465751 57.806594 58.138981 58.462952
58.777613 59.083024 59.378363 59.663707 59.938310 60.202267 60.454912 60.696352
60.925999 61.143974 61.349763 61.543494 61.724725 61.893588 62.049710 62.193216
62.323802 62.441581 62.546310 62.638088 62.716731 62.782315 62.834712 62.873976
62.900029 62.912899 62.912561 62.899014 62.872283 62.832340 62.779262 62.712994
62.633664 62.541195 62.435771 62.317293 62.186003 62.041789 61.884954 61.715373
61.533419 61.338962 61.132443 60.913735 60.683353 60.441176 60.187796 59.923102
59.647767 59.361695 59.065635 58.759511 58.444149 58.119490 57.786433 57.444938
57.095971 56.739506 56.376569 56.007145 55.632310 55.252055 54.867494 54.478617
54.086565 53.691318 53.294033 52.894675 52.494401 52.093153 51.692078 51.291089
50.891309 50.492618 50.096103 49.701607 49.310173 48.921601 48.536883 48.155775
47.779210 47.406899 47.039710 46.677311 46.320499 45.968901 45.623240 45.283106
44.949143 44.620907 44.298965 43.982841 43.673023 43.369010 43.071212 42.779105
42.493022 42.212424 41.937566 41.667900 41.403605 41.144131 40.889581 40.639407
40.393644 40.151751 39.913692 39.678943 39.447402 39.218563 38.992264 38.768023
38.545620 38.324606 38.104703 37.885499 37.666667
38.044444 38.293093 38.542134 38.791911 39.042860 39.295271 39.549618 39.806134
40.065323 40.327355 40.592762 40.861647 41.134561 41.411538 41.693141 41.979331
42.270679 42.567068 42.869070 43.176489 43.489892 43.809000 44.134369 44.465634
44.803337 45.147026 45.497219 45.853379 46.215994 46.584443 46.959178 47.339495
47.725806 48.117325 48.514420 48.916229 49.323073 49.734013 50.149325 50.568001
50.990268 51.415056 51.842547 52.271616 52.702399 53.133730 53.565705 53.997123
54.428046 54.857253 55.284778 55.709394 56.131112 56.548713 56.962197 57.370365
57.773212 58.169575 58.559452 58.941726 59.316408 59.682440 60.039846 60.387639
60.725863 61.053606 61.370934 61.677016 61.971940 62.254959 62.526180 62.784941
63.031366 63.264875 63.485603 63.693051 63.887360 64.068107 64.235431 64.388981