# vtk DataFile Version 3.0
Steady-state temperature (Jacobi)
ASCII
DATASET STRUCTURED_POINTS
DIMENSIONS 181 181 1
ORIGIN 0.0 0.0 0.0
SPACING 0.05 0.05 1.0
POINT_DATA 32761
SCALARS Temperature float 1
LOOKUP_TABLE default
32.000000 32.000000 32.000000 32.000000 32.000000 32.000000 32.000000 32.000000
32.000000 32.000000 32.000000 32.000000 32.000000 32.000000 32.000000 32.000000
32.000000 32.000000 32.000000 32.000000 32.000000 32.000000 32.000000 32.000000
32.000000 32.000000 32.000000 32.000000 32.000000 32.000000 32.000000 32.000000
32.000000 32.000000 32.000000 32.000000 32.000000 32.000000 32.000000 32.000000
32.000000 32.000000 32.000000 32.000000 32.000000 32.000000 32.000000 32.000000
32.000000 32.000000 32.000000 32.000000 32.000000 32.000000 32.000000 32.000000
32.000000 32.000000 32.000000 32.000000 32.000000 32.000000 32.000000 32.000000
32.000000 32.000000 32.000000 32.000000 32.000000 32.000000 32.000000 32.000000
32.000000 32.000000 32.000000 32.000000 32.000000 32.000000 32.000000 32.000000
32.000000 32.000000 32.000000 32.000000 32.000000 32.000000 32.000000 32.000000
32.000000 32.000000 32.000000 32.000000 32.000000 32.000000 32.000000 32.000000
32.000000 32.000000 32.000000 32.000000 32.000000 32.000000 32.000000 32.000000
32.000000 32.000000 32.000000 32.000000 32.000000 32.000000 32.000000 32.000000
32.000000 32.000000 32.000000 32.000000 32.000000 32.000000 32.000000 32.000000
32.000000 32.000000 32.000000 32.000000 32.000000 32.000000 32.000000 32.000000
32.000000 32.000000 32.000000 32.000000 32.000000 32.000000 32.000000 32.000000
32.000000 32.000000 32.000000 32.000000 32.000000 32.000000 32.000000 32.000000
32.000000 32.000000 32.000000 32.000000 32.000000 32.000000 32.000000 32.000000
32.000000 32.000000 32.000000 32.000000 32.000000 32.000000 32.000000 32.000000
32.000000 32.000000 32.000000 32.000000 32.000000 32.000000 32.000000 32.000000
32.000000 32.000000 32.000000 32.000000 32.000000 32.000000 32.000000 32.000000
32.000000 32.000000 32.000000 32.000000 32.000000
32.377778 32.361711 32.345690 32.329763 32.313973 32.298368 32.282987 32.267874
32.253067 32.238603 32.224515 32.210837 32.197594 32.184814 32.172517 32.160724
32.149446 32.138703 32.128495 32.118837 32.109723 32.101164 32.093145 32.085675
32.078733 32.072323 32.066421 32.061029 32.056115 32.051685 32.047700 32.044166
32.041042 32.038335 32.035999 32.034045 32.032422 32.031147 32.030163 32.029493
32.029075 32.028937 32.029015 32.029340 32.029845 32.030567 32.031434 32.032489
32.033656 32.034984 32.036394 32.037937 32.039534 32.041239 32.042971 32.044788
32.046608 32.048490 32.050353 32.052257 32.054123 32.056011 32.057844 32.059682
32.061452 32.063212 32.064892 32.066550 32.068119 32.069656 32.071098 32.072500
32.073804 32.075061 32.076220 32.077326 32.078335 32.079288 32.080147 32.080947
32.081656 32.082305 32.082868 32.083368 32.083786 32.084141 32.084418 32.084630
32.084768 32.084838 32.084838 32.084768 32.084630 32.084418 32.084141 32.083786
32.083367 32.082867 32.082304 32.081655 32.080945 32.080144 32.079285 32.078331
32.077321 32.076214 32.075054 32.073795 32.072489 32.071085 32.069639 32.068099
32.066526 32.064863 32.063177 32.061410 32.059632 32.057783 32.055938 32.054036
32.052154 32.050231 32.048346 32.046439 32.044590 32.042740 32.040969 32.039219
32.037572 32.035971 32.034497 32.033096 32.031846 32.030699 32.029728 32.028892
32.028259 32.027793 32.027559 32.027526 32.027756 32.028222 32.028983 32.030017
32.031379 32.033053 32.035089 32.037475 32.040258 32.043430 32.047033 32.051062
32.055555 32.060509 32.065956 32.071894 32.078352 32.085326 32.092837 32.100883
32.109477 32.118614 32.128300 32.138527 32.149295 32.160588 32.172400 32.184711
32.197506 32.210760 32.224450 32.238546 32.253020 32.267834 32.282955 32.298341
32.313953 32.329748 32.345680 32.361706 32.377778
32.755556 32.723422 32.691382 32.659527 32.627951 32.596739 32.565980 32.535755
32.506143 32.477215 32.449044 32.421687 32.395206 32.369646 32.345058 32.321471
32.298927 32.277437 32.257035 32.237717 32.219506 32.202384 32.186367 32.171423
32.157563 32.144740 32.132964 32.122176 32.112385 32.103520 32.095592 32.088520
32.082320 32.076901 32.072284 32.068371 32.065190 32.062633 32.060739 32.059390
32.058637 32.058353 32.058598 32.059239 32.060347 32.061781 32.063620 32.065719
32.068167 32.070810 32.073747 32.076821 32.080137 32.083534 32.087123 32.090742
32.094507 32.098256 32.102107 32.105899 32.109754 32.113514 32.117300 32.120959
32.124614 32.128116 32.131585 32.134882 32.138123 32.141178 32.144157 32.146942
32.149636 32.152133 32.154526 32.156723 32.158808 32.160700 32.162474 32.164062
32.165528 32.166815 32.167977 32.168970 32.169834 32.170537 32.171110 32.171530
32.171815 32.171954 32.171954 32.171814 32.171529 32.171109 32.170537 32.169833
32.168968 32.167976 32.166813 32.165525 32.164058 32.162469 32.160694 32.158800
32.156713 32.154515 32.152119 32.149619 32.146921 32.144131 32.141146 32.138083
32.134834 32.131527 32.128046 32.124529 32.120858 32.117178 32.113369 32.109581
32.105694 32.101864 32.097969 32.094170 32.090346 32.086660 32.082993 32.079508
32.076091 32.072903 32.069836 32.067046 32.064434 32.062150 32.060104 32.058440
32.057077 32.056153 32.055596 32.055538 32.055916 32.056856 32.058305 32.060379
32.063040 32.066393 32.070408 32.075186 32.080704 32.087052 32.094217 32.102279
32.111230 32.121141 32.132006 32.143886 32.156777 32.170727 32.185730 32.201824
32.218997 32.237272 32.256633 32.277089 32.298613 32.321201 32.344818 32.369440
32.395024 32.421533 32.448909 32.477102 32.506046 32.535675 32.565914 32.596686
32.627909 32.659498 32.691362 32.723412 32.755556
33.133333 33.085135 33.037077 32.989298 32.941934 32.895121 32.848984 32.803651
32.759234 32.715850 32.673594 32.632568 32.592849 32.554521 32.517641 32.482278
32.448463 32.416250 32.385649 32.356700 32.329386 32.303738 32.279717 32.257344
32.236559 32.217378 32.199722 32.183603 32.168925 32.155703 32.143822 32.133303
32.124017 32.115992 32.109084 32.103333 32.098580 32.094880 32.092061 32.090191
32.089085 32.088829 32.089224 32.090371 32.092063 32.094414 32.097205 32.100568
32.104272 32.108463 32.112904 32.117750 32.122758 32.128095 32.133513 32.139187
32.144868 32.150736 32.156544 32.162475 32.168286 32.174163 32.179868 32.185585
32.191089 32.196559 32.201781 32.206930 32.211806 32.216577 32.221057 32.225406
32.229455 32.233354 32.236949 32.240379 32.243510 32.246465 32.249128 32.251607
32.253806 32.255817 32.257560 32.259109 32.260406 32.261504 32.262362 32.263018
32.263445 32.263663 32.263663 32.263445 32.263017 32.262361 32.261503 32.260404
32.259107 32.257557 32.255813 32.253802 32.251601 32.249120 32.246456 32.243499
32.240365 32.236932 32.233332 32.229429 32.225374 32.221017 32.216529 32.211747
32.206859 32.201694 32.196454 32.190962 32.185433 32.179685 32.173945 32.168027
32.162168 32.156180 32.150306 32.144362 32.138593 32.132818 32.127284 32.121814
32.116655 32.111637 32.107002 32.102591 32.098639 32.095000 32.091899 32.089203
32.087128 32.085557 32.084694 32.084437 32.084980 32.086236 32.088388 32.091365
32.095336 32.100246 32.106253 32.113316 32.121579 32.131012 32.141748 32.153766
32.167183 32.181986 32.198276 32.216044 32.235375 32.256257 32.278758 32.302864
32.328620 32.356005 32.385044 32.415706 32.447991 32.481856 32.517279 32.554200
32.592575 32.632327 32.673391 32.715674 32.759088 32.803526 32.848883 32.895038
32.941871 32.989251 33.037047 33.085120 33.133333
33.511111 33.446850 33.382777 33.319075 33.255929 33.193514 33.132007 33.071565
33.012354 32.954512 32.898185 32.843488 32.790548 32.739450 32.690301 32.643157
32.598102 32.555162 32.514400 32.475813 32.439446 32.405264 32.373299 32.343488
32.315853 32.290303 32.266856 32.245394 32.225938 32.208345 32.192640 32.178658
32.166436 32.155788 32.146762 32.139154 32.133029 32.128165 32.124645 32.122230
32.121023 32.120768 32.121590 32.123215 32.125791 32.129029 32.133096 32.137689
32.142994 32.148697 32.155001 32.161581 32.168655 32.175890 32.183519 32.191204
32.199185 32.207127 32.215275 32.223296 32.231440 32.239382 32.247372 32.255095
32.262799 32.270183 32.277491 32.284438 32.291259 32.297692 32.303959 32.309819
32.315483 32.320732 32.325761 32.330376 32.334755 32.338729 32.342454 32.345786
32.348862 32.351563 32.354001 32.356082 32.357895 32.359370 32.360571 32.361450
32.362048 32.362340 32.362340 32.362047 32.361449 32.360569 32.359368 32.357893
32.356079 32.353997 32.351558 32.348856 32.345779 32.342444 32.338717 32.334740
32.330358 32.325738 32.320703 32.315447 32.309775 32.303906 32.297627 32.291181
32.284342 32.277375 32.270043 32.262630 32.254892 32.247129 32.239092 32.231095
32.222885 32.214789 32.206553 32.198511 32.190412 32.182592 32.174809 32.167396
32.160121 32.153312 32.146749 32.140753 32.135118 32.130156 32.125676 32.121978
32.118891 32.116701 32.115255 32.114826 32.115282 32.116879 32.119509 32.123408
32.128491 32.134979 32.142803 32.152169 32.163026 32.175561 32.189739 32.205726
32.223501 32.243208 32.264833 32.288500 32.314196 32.342020 32.371957 32.404083
32.438373 32.474875 32.513553 32.554426 32.597442 32.642588 32.689794 32.739016
32.790164 32.843163 32.897901 32.954274 33.012149 33.071397 33.131866 33.193403
33.255842 33.319012 33.382735 33.446830 33.511111
33.888889 33.808570 33.728484 33.648864 33.569937 33.491929 33.415050 33.339513
33.265505 33.193221 33.122821 33.054474 32.988309 32.924469 32.863046 32.804157
32.747856 32.694234 32.643305 32.595139 32.549709 32.507066 32.467147 32.429989
32.395491 32.363683 32.334430 32.307760 32.283507 32.261704 32.242154 32.224899
32.209718 32.196667 32.185498 32.176286 32.168761 32.163021 32.158770 32.156132
32.154790 32.154895 32.156106 32.158602 32.162023 32.166572 32.171871 32.178148
32.185007 32.192701 32.200817 32.209629 32.218714 32.228362 32.238143 32.248359
32.258580 32.269117 32.279540 32.290168 32.300577 32.311090 32.321295 32.331510
32.341342 32.351105 32.360424 32.369605 32.378298 32.386797 32.394777 32.402518
32.409725 32.416658 32.423053 32.429148 32.434712 32.439959 32.444689 32.449090
32.452994 32.456560 32.459652 32.462400 32.464699 32.466646 32.468168 32.469329
32.470086 32.470472 32.470472 32.470086 32.469328 32.468166 32.466644 32.464696
32.462397 32.459648 32.456554 32.452986 32.449081 32.444677 32.439944 32.434694
32.429125 32.423024 32.416622 32.409681 32.402464 32.394711 32.386716 32.378199
32.369485 32.360278 32.350930 32.341131 32.331257 32.320991 32.310728 32.300145
32.289655 32.278933 32.268400 32.257736 32.247370 32.236985 32.227010 32.217142
32.207804 32.198706 32.190265 32.182206 32.174934 32.168196 32.162381 32.157256
32.153197 32.149995 32.148004 32.147044 32.147448 32.149062 32.152200 32.156735
32.162958 32.170769 32.180436 32.191884 32.205359 32.220805 32.238446 32.258243
32.280393 32.304870 32.331846 32.361300 32.393374 32.428048 32.465434 32.505505
32.548339 32.593898 32.642224 32.693261 32.747014 32.803404 32.862399 32.923895
32.987819 33.054044 33.122458 33.192906 33.265244 33.339290 33.414871 33.491782
33.569826 33.648781 33.728430 33.808543 33.888889
34.266667 34.170292 34.074200 33.978665 33.883966 33.790365 33.698127 33.607492
33.518706 33.431977 33.347527 33.265527 33.186167 33.109580 33.035924 32.965284
32.897789 32.833476 32.772447 32.714690 32.660282 32.609166 32.561397 32.516876
32.475644 32.437559 32.402657 32.370757 32.341897 32.315858 32.292688 32.272132
32.254254 32.238768 32.225758 32.214909 32.206329 32.199674 32.195083 32.192181
32.191141 32.191560 32.193642 32.196959 32.201748 32.207554 32.214648 32.222551
32.231561 32.241183 32.251738 32.262715 32.274459 32.286447 32.299042 32.311713
32.324841 32.337891 32.351255 32.364404 32.377734 32.390728 32.403782 32.416398
32.428967 32.441012 32.452919 32.464239 32.475341 32.485810 32.495999 32.505527
32.514727 32.523253 32.531414 32.538905 32.546005 32.552448 32.558482 32.563883
32.568863 32.573236 32.577180 32.580549 32.583480 32.585866 32.587807 32.589229
32.590195 32.590667 32.590667 32.590194 32.589228 32.587805 32.585863 32.583477
32.580544 32.577175 32.573229 32.568854 32.563871 32.558468 32.552430 32.545982
32.538877 32.531379 32.523210 32.514674 32.505462 32.495920 32.485713 32.475223
32.464095 32.452745 32.440802 32.428713 32.416093 32.403418 32.390292 32.377215
32.363789 32.350527 32.337031 32.323829 32.310525 32.297652 32.284825 32.272572
32.260525 32.249205 32.238260 32.228200 32.218695 32.210237 32.202524 32.196028
32.190473 32.186308 32.183291 32.181845 32.181760 32.183434 32.186690 32.191898
32.198915 32.208083 32.219291 32.232853 32.248683 32.267069 32.287949 32.311579
32.337917 32.367186 32.399355 32.434614 32.472937 32.514478 32.559207 32.607237
32.658531 32.713159 32.771064 32.832275 32.896712 32.964355 33.035096 33.108872
33.185542 33.264996 33.347063 33.431589 33.518372 33.607218 33.697898 33.790184
33.883823 33.978562 34.074131 34.170259 34.266667
34.644444 34.532021 34.419925 34.308484 34.198014 34.088834 33.981237 33.875523
33.771955 33.670807 33.572302 33.476682 33.384123 33.294832 33.208935 33.126601
33.047901 32.972972 32.901829 32.834576 32.771174 32.711701 32.656064 32.604324
32.556336 32.512150 32.471575 32.434658 32.401161 32.371141 32.344316 32.320758
32.300146 32.282574 32.267683 32.255595 32.245916 32.238802 32.233820 32.231166
32.230372 32.231671 32.234565 32.239323 32.245415 32.253151 32.261969 32.272215
32.283302 32.295607 32.308520 32.322449 32.336766 32.351903 32.367220 32.383168
32.399104 32.415492 32.431692 32.448178 32.464318 32.480589 32.496380 32.512164
32.527352 32.542413 32.556788 32.570933 32.584325 32.597401 32.609680 32.621577
32.632654 32.643296 32.653114 32.662462 32.670996 32.679035 32.686283 32.693019
32.698996 32.704450 32.709181 32.713382 32.716896 32.719871 32.722197 32.723970
32.725127 32.725717 32.725716 32.725127 32.723969 32.722194 32.719868 32.716893
32.713377 32.709175 32.704442 32.698985 32.693005 32.686266 32.679014 32.670970
32.662429 32.653074 32.643246 32.632592 32.621501 32.609588 32.597288 32.584187
32.570765 32.556585 32.542167 32.527056 32.511808 32.495954 32.480082 32.463713
32.447460 32.430842 32.414489 32.397923 32.381782 32.365598 32.350010 32.334565
32.319894 32.305565 32.292197 32.279380 32.267716 32.256824 32.247283 32.238742
32.231756 32.226008 32.222024 32.219527 32.219008 32.220230 32.223653 32.229080
32.236936 32.247062 32.259851 32.275178 32.293401 32.314428 32.338580 32.365790
32.396344 32.430191 32.467579 32.508468 32.553062 32.601325 32.653415 32.709289
32.769057 32.832660 32.900159 32.971470 33.046600 33.125438 33.207935 33.293946
33.383368 33.476018 33.571742 33.670321 33.771552 33.875180 33.980960 34.088607
34.197842 34.308356 34.419843 34.531980 34.644444
35.022222 34.893756 34.765665 34.638321 34.512093 34.387333 34.264396 34.143601
34.025278 33.909706 33.797182 33.687936 33.582224 33.480220 33.382143 33.288103
33.198279 33.112718 33.031562 32.954794 32.882524 32.814673 32.751325 32.692341
32.637790 32.587476 32.541460 32.499492 32.461639 32.427599 32.397453 32.370850
32.347894 32.328187 32.311866 32.298487 32.288224 32.280592 32.275802 32.273331
32.273434 32.275544 32.279964 32.286088 32.294263 32.303846 32.315226 32.327727
32.341778 32.356672 32.372875 32.389654 32.407508 32.425684 32.444707 32.463816
32.483552 32.503155 32.523180 32.542872 32.562794 32.582207 32.601676 32.620487
32.639198 32.657129 32.674827 32.691650 32.708128 32.723666 32.738768 32.752890
32.766507 32.779130 32.791195 32.802271 32.812756 32.822273 32.831175 32.839143
32.846483 32.852930 32.858739 32.863700 32.868015 32.871527 32.874382 32.876475
32.877895 32.878591 32.878590 32.877895 32.876474 32.874379 32.871524 32.868011
32.863695 32.858731 32.852920 32.846471 32.839128 32.831156 32.822249 32.812726
32.802234 32.791149 32.779072 32.766437 32.752804 32.738662 32.723536 32.707970
32.691459 32.674595 32.656849 32.638860 32.620081 32.601190 32.581627 32.562102
32.542051 32.522209 32.502009 32.482203 32.462232 32.442854 32.423521 32.404991
32.386735 32.369497 32.352775 32.337296 32.322586 32.309346 32.297139 32.286637
32.277440 32.270186 32.264519 32.261039 32.259436 32.260270 32.263279 32.268982
32.277162 32.288299 32.302218 32.319359 32.339585 32.363295 32.390387 32.421216
32.455705 32.494164 32.536537 32.583084 32.633757 32.688766 32.748061 32.811799
32.879916 32.952512 33.029503 33.110929 33.196675 33.286719 33.380911 33.479165
33.581292 33.687145 33.796492 33.909128 34.024781 34.143193 34.264054 34.387064
34.511880 34.638168 34.765563 34.893706 35.022222
35.400000 35.255498 35.111419 34.968184 34.826200 34.685879 34.547600 34.411751
34.278669 34.148710 34.022160 33.899335 33.780461 33.665809 33.555538 33.449876
33.348910 33.252824 33.161635 33.075487 32.994325 32.918263 32.847176 32.781155
32.720008 32.663816 32.612322 32.565608 32.523356 32.485659 32.452143 32.422922
32.397566 32.376223 32.358410 32.344314 32.333399 32.325899 32.321228 32.319669
32.320588 32.324319 32.330179 32.338556 32.348719 32.361108 32.374949 32.390728
32.407635 32.426197 32.445572 32.466325 32.487588 32.509960 32.532554 32.555995
32.579390 32.603381 32.627079 32.651138 32.674683 32.698372 32.721353 32.744284
32.766347 32.788188 32.809033 32.829511 32.848900 32.867802 32.885553 32.902725
32.918715 32.934056 32.948210 32.961667 32.973954 32.985513 32.995936 33.005611
33.014198 33.022024 33.028815 33.034837 33.039878 33.044140 33.047473 33.050014
33.051672 33.052515 33.052515 33.051670 33.050012 33.047471 33.044136 33.039873
33.034830 33.028807 33.022013 33.014184 33.005594 32.995915 32.985486 32.973921
32.961625 32.948158 32.933992 32.918636 32.902628 32.885434 32.867656 32.848722
32.829296 32.808772 32.787872 32.765967 32.743828 32.720807 32.697719 32.673905
32.650215 32.625987 32.602092 32.577872 32.554214 32.530469 32.507527 32.484757
32.463040 32.441771 32.421813 32.402592 32.384944 32.368333 32.353563 32.340139
32.328826 32.319179 32.311916 32.306644 32.304038 32.303754 32.306422 32.311752
32.320323 32.331898 32.347008 32.365464 32.387749 32.413715 32.443796 32.477879
32.516348 32.559115 32.606510 32.658464 32.715248 32.776798 32.843325 32.914759
32.991249 33.072704 33.159208 33.250642 33.347020 33.448188 33.554087 33.664522
33.779364 33.898371 34.021347 34.148005 34.278084 34.411253 34.547198 34.685551
34.825949 34.967997 35.111299 35.255438 35.400000
35.777778 35.617249 35.457192 35.298070 35.140349 34.984468 34.830873 34.679966
34.532162 34.387809 34.247282 34.110869 33.978898 33.851583 33.729205 33.611902
33.499905 33.393272 33.292190 33.196636 33.106758 33.022454 32.943846 32.870751
32.803276 32.741164 32.684517 32.633008 32.586746 32.545337 32.508912 32.477011
32.449797 32.426749 32.408070 32.393178 32.382327 32.374876 32.371132 32.370395
32.373031 32.378283 32.386577 32.397098 32.410331 32.425409 32.442873 32.461806
32.482799 32.504897 32.528733 32.553318 32.579326 32.605739 32.633267 32.660877
32.689303 32.717509 32.746247 32.774490 32.802999 32.830771 32.858567 32.885418
32.912078 32.937624 32.962794 32.986719 33.010114 33.032174 33.053581 33.073600
33.092873 33.110739 33.127791 33.143446 33.158244 33.171677 33.184225 33.195459
33.205793 33.214873 33.223043 33.230024 33.236088 33.241027 33.245036 33.247978
33.249972 33.250949 33.250949 33.249971 33.247976 33.245033 33.241023 33.236083
33.230017 33.223034 33.214861 33.205778 33.195440 33.184201 33.171647 33.158206
33.143400 33.127734 33.110667 33.092785 33.073492 33.053448 33.032012 33.009916
32.986479 32.962503 32.937273 32.911656 32.884911 32.857960 32.830046 32.802135
32.773464 32.745033 32.716076 32.687616 32.658898 32.630951 32.603036 32.576180
32.549668 32.524511 32.500025 32.477196 32.455379 32.435522 32.417026 32.400798
32.386288 32.374353 32.364502 32.357538 32.353026 32.351717 32.353235 32.358275
32.366521 32.378611 32.394287 32.414128 32.437930 32.466215 32.498822 32.536217
32.578274 32.625398 32.677491 32.734894 32.797521 32.865648 32.939190 33.018352
33.103038 33.193379 33.289255 33.390720 33.497619 33.609928 33.727450 33.850079
33.977570 34.109743 34.246299 34.386985 34.531453 34.679385 34.830387 34.984084
35.140046 35.297852 35.457047 35.617178 35.777778
36.155556 35.979011 35.802983 35.627991 35.454535 35.283119 35.114207 34.948278
34.785745 34.627047 34.472535 34.322599 34.177517 34.037627 33.903123 33.774292
33.651241 33.534205 33.423201 33.318422 33.219795 33.127476 33.041306 32.961419
32.887568 32.819880 32.758025 32.702134 32.651801 32.607173 32.567769 32.533769
32.504618 32.480540 32.460908 32.445999 32.435118 32.428598 32.425677 32.426753
32.430994 32.438867 32.449472 32.463341 32.479513 32.498582 32.519527 32.543002
32.567933 32.595028 32.623166 32.653103 32.683683 32.715703 32.747980 32.781345
32.814605 32.848614 32.882183 32.916179 32.949434 32.982820 33.015200 33.047446
33.078466 33.109117 33.138368 33.167054 33.194212 33.220644 33.245466 33.269438
33.291761 33.313143 33.332871 33.351599 33.368700 33.384763 33.399250 33.412678
33.424598 33.435447 33.444863 33.453203 33.460187 33.466085 33.470700 33.474214
33.476508 33.477675 33.477675 33.476507 33.474212 33.470697 33.466081 33.460181
33.453195 33.444853 33.435434 33.424581 33.412657 33.399224 33.384730 33.368659
33.351548 33.332808 33.313064 33.291664 33.269319 33.245320 33.220466 33.193995
33.166790 33.138049 33.108731 33.078001 33.046888 33.014532 32.982022 32.948483
32.915051 32.880847 32.847038 32.812750 32.779168 32.745432 32.712729 32.680223
32.649088 32.618521 32.589670 32.561769 32.535933 32.511441 32.489361 32.469026
32.451450 32.436027 32.423707 32.413952 32.407647 32.404320 32.404793 32.408660
32.416677 32.428504 32.444832 32.465383 32.490780 32.520802 32.556006 32.596218
32.641927 32.692995 32.749840 32.812348 32.880866 32.955289 33.035886 33.122548
33.215465 33.314510 33.419787 33.531138 33.648583 33.771921 33.901082 34.035819
34.175974 34.321246 34.471392 34.626057 34.784923 34.947580 35.113643 35.282657
35.454183 35.627729 35.802814 35.978926 36.155556
36.533333 36.340782 36.148800 35.957943 35.768776 35.581825 35.397632 35.216676
35.039463 34.866411 34.697978 34.534506 34.376399 34.223915 34.077399 33.937016
33.803057 33.675588 33.554849 33.440809 33.333666 33.233289 33.139849 33.053117
32.973249 32.899923 32.833295 32.772954 32.719069 32.671144 32.629378 32.593192
32.562827 32.537621 32.517874 32.502840 32.492883 32.487179 32.486159 32.488921
32.495971 32.506328 32.520570 32.537640 32.558192 32.581094 32.607069 32.634918
32.665427 32.697339 32.731497 32.766594 32.803523 32.840942 32.879781 32.918681
32.958601 32.998178 33.038393 33.077894 33.117676 33.156415 33.195106 33.232474
33.269504 33.304981 33.339871 33.373033 33.405402 33.435923 33.465488 33.493137
33.519708 33.544340 33.567811 33.589360 33.609696 33.628158 33.645377 33.660795
33.674957 33.687403 33.698587 33.708146 33.716439 33.723196 33.728675 33.732698
33.735421 33.736757 33.736757 33.735420 33.732695 33.728671 33.723190 33.716432
33.708137 33.698576 33.687388 33.674939 33.660772 33.645349 33.628122 33.609651
33.589304 33.567742 33.544254 33.519603 33.493007 33.465329 33.435729 33.405165
33.372745 33.339522 33.304560 33.268997 33.231865 33.194377 33.155544 33.116639
33.076664 33.036936 32.996458 32.956577 32.916305 32.877001 32.837697 32.799748
32.762215 32.726430 32.691494 32.658703 32.627206 32.598248 32.571034 32.546752
32.524668 32.505902 32.489790 32.477379 32.468079 32.462861 32.461210 32.464020
32.470852 32.482524 32.498668 32.520024 32.546295 32.578142 32.615326 32.658434
32.707273 32.762353 32.823516 32.891191 32.965241 33.046012 33.133373 33.227579
33.328493 33.436278 33.550769 33.672037 33.799880 33.934271 34.074960 34.221824
34.374556 34.532940 34.696612 34.865266 35.038480 35.215868 35.396956 35.581292
35.768355 35.957641 36.148598 36.340684 36.533333
36.911111 36.702568 36.494640 36.287942 36.083065 35.880613 35.681134 35.485199
35.293298 35.105957 34.923589 34.746668 34.575518 34.410553 34.252000 34.100212
33.955314 33.817600 33.687088 33.564025 33.448320 33.340184 33.239417 33.146211
33.060259 32.981748 32.910271 32.846024 32.788502 32.737928 32.693704 32.656095
32.624408 32.598966 32.578982 32.564848 32.555685 32.551958 32.552699 32.558453
32.568158 32.582444 32.600159 32.622014 32.646769 32.675215 32.706031 32.740080
32.775966 32.814618 32.854580 32.896838 32.939885 32.984756 33.029912 33.076426
33.122745 33.169971 33.216554 33.263615 33.309629 33.355723 33.400417 33.444834
33.487554 33.529685 33.569887 33.609237 33.646488 33.682678 33.716660 33.749421
33.779926 33.809094 33.836007 33.861510 33.884800 33.906638 33.926337 33.944566
33.960750 33.975459 33.988229 33.999523 34.008985 34.016965 34.023213 34.027965
34.031069 34.032646 34.032646 34.031068 34.027962 34.023209 34.016960 34.008978
33.999514 33.988217 33.975444 33.960730 33.944541 33.926306 33.906599 33.884751
33.861450 33.835932 33.809001 33.779811 33.749281 33.716488 33.682467 33.646232
33.608925 33.569509 33.529229 33.487005 33.444174 33.399628 33.354780 33.308506
33.262282 33.214976 33.168108 33.120552 33.073853 33.026900 32.981242 32.935795
32.892093 32.849091 32.808286 32.768681 32.731724 32.696475 32.664317 32.634376
32.607960 32.584269 32.564528 32.548016 32.535873 32.527459 32.523826 32.524417
32.530195 32.540687 32.556766 32.578039 32.605290 32.638198 32.677459 32.722813
32.774870 32.833417 32.898974 32.971363 33.051012 33.137761 33.231942 33.333394
33.442351 33.558636 33.682382 33.813378 33.951651 34.096948 34.249189 34.408065
34.573394 34.744805 34.922016 35.104595 35.292166 35.484238 35.680357 35.879979
36.082581 36.287581 36.494407 36.702452 36.911111
37.288889 37.064367 36.840513 36.617979 36.397426 36.179471 35.964753 35.753832
35.547305 35.345661 35.149445 34.959055 34.774974 34.597503 34.427061 34.263836
34.108188 33.960189 33.820145 33.688010 33.564046 33.448091 33.340377 33.240625
33.149055 33.065276 32.989515 32.921267 32.860784 32.807456 32.761576 32.722425
32.690356 32.664544 32.645412 32.632032 32.624905 32.622999 32.626903 32.635477
32.649403 32.667436 32.690347 32.716790 32.747624 32.781404 32.819074 32.859098
32.902495 32.947649 32.995649 33.044812 33.096283 33.148334 33.202158 33.255996
33.311080 33.365645 33.420947 33.475239 33.529790 33.582894 33.635820 33.686924
33.737463 33.785876 33.833394 33.878553 33.922549 33.964028 34.004134 34.041636
34.077611 34.110958 34.142678 34.171798 34.199231 34.224137 34.247328 34.268094
34.287138 34.303877 34.318898 34.331740 34.342865 34.351934 34.359278 34.364675
34.368324 34.370115 34.370114 34.368322 34.364672 34.359274 34.351928 34.342857
34.331730 34.318885 34.303861 34.287117 34.268067 34.247294 34.224095 34.199179
34.171733 34.142597 34.110858 34.077488 34.041484 34.003949 33.963802 33.922273
33.878218 33.832987 33.785384 33.736872 33.686213 33.634969 33.581878 33.528581
33.473803 33.419247 33.363639 33.308719 33.253225 33.198914 33.144549 33.091879
33.039702 32.989737 32.940830 32.894650 32.850100 32.808783 32.769668 32.734277
32.701655 32.673234 32.648142 32.627712 32.611161 32.599722 32.592702 32.591232
32.594713 32.604171 32.619098 32.640419 32.667712 32.701800 32.742336 32.790043
32.844640 32.906749 32.976135 33.053322 33.138104 33.230902 33.331523 33.440281
33.556977 33.681814 33.814570 33.955336 34.103849 34.260085 34.423731 34.594646
34.772459 34.956916 35.147581 35.344098 35.545964 35.752729 35.963832 36.178743
36.396852 36.617566 36.840238 37.064234 37.288889
37.666667 37.426185 37.186415 36.948074 36.711847 36.478433 36.248470 36.022624
35.801461 35.585598 35.375513 35.171765 34.974729 34.784898 34.602532 34.428059
34.261618 34.103578 33.953949 33.813049 33.680764 33.557374 33.442637 33.336814
33.239538 33.151072 33.070923 32.999375 32.935816 32.880568 32.832900 32.793192
32.760594 32.735559 32.717118 32.705810 32.700545 32.701956 32.708833 32.721909
32.739851 32.763493 32.791382 32.824451 32.861131 32.902448 32.946725 32.995073
33.045717 33.099847 33.155602 33.214242 33.273838 33.335707 33.397877 33.461711
33.525217 33.589791 33.653447 33.717602 33.780305 33.842979 33.903733 33.963984
34.021922 34.078946 34.133350 34.186498 34.236802 34.285579 34.331376 34.375442
34.416468 34.455624 34.491749 34.525920 34.557122 34.586330 34.612676 34.637015
34.658626 34.678236 34.695265 34.710303 34.722905 34.733521 34.741836 34.748152
34.752282 34.754378 34.754377 34.752280 34.748149 34.741831 34.733515 34.722897
34.710292 34.695251 34.678218 34.658603 34.636986 34.612640 34.586285 34.557066
34.525850 34.491662 34.455517 34.416336 34.375280 34.331177 34.285336 34.236506
34.186138 34.132914 34.078420 34.021288 33.963223 33.902821 33.841891 33.779009
33.716064 33.651626 33.587641 33.522687 33.458742 33.394402 33.331652 33.269119
33.208767 33.149269 33.092540 33.037312 32.985433 32.935699 32.889873 32.846831
32.808235 32.773047 32.742821 32.716611 32.695856 32.679711 32.669495 32.664466
32.665825 32.672931 32.686867 32.707091 32.734571 32.768855 32.810796 32.860022
32.917275 32.982245 33.055564 33.136967 33.226971 33.325343 33.432481 33.548159
33.672658 33.805739 33.947560 34.097851 34.256648 34.423633 34.598718 34.781527
34.971849 35.169242 35.373381 35.583753 35.799926 36.021323 36.247417 36.477574
36.711190 36.947586 37.186101 37.426027 37.666667
38.044444 37.788018 37.532360 37.278219 37.026357 36.777483 36.532333 36.291552
36.055832 35.825732 35.601889 35.384757 35.174909 34.972683 34.778581 34.592816
34.415826 34.247687 34.088782 33.939051 33.798832 33.667927 33.546649 33.434661
33.332271 33.239006 33.155190 33.080216 33.014443 32.957132 32.908700 32.868274
32.836346 32.811911 32.795547 32.786117 32.784300 32.788818 32.800460 32.817811
32.841767 32.870776 32.905843 32.945281 32.990199 33.038779 33.092230 33.148612
33.209224 33.272021 33.338378 33.406164 33.476823 33.548158 33.621669 33.695122
33.770059 33.844240 33.919236 33.992829 34.066606 34.138401 34.209805 34.278732
34.346760 34.411910 34.475729 34.536369 34.595329 34.650906 34.704538 34.754679
34.802687 34.847179 34.889421 34.928196 34.964657 34.997757 35.028524 35.056073