# vtk DataFile Version 3.0
Steady-state temperature (Jacobi)
ASCII
DATASET STRUCTURED_POINTS
DIMENSIONS 181 181 1
ORIGIN 0.0 0.0 0.0
SPACING 0.05 0.05 1.0
POINT_DATA 32761
SCALARS Temperature float 1
LOOKUP_TABLE default
32.000000 32.000000 32.000000 32.000000 32.000000 32.000000 32.000000 32.000000
32.000000 32.000000 32.000000 32.000000 32.000000 32.000000 32.000000 32.000000
32.000000 32.000000 32.000000 32.000000 32.000000 32.000000 32.000000 32.000000
32.000000 32.000000 32.000000 32.000000 32.000000 32.000000 32.000000 32.000000
32.000000 32.000000 32.000000 32.000000 32.000000 32.000000 32.000000 32.000000
32.000000 32.000000 32.000000 32.000000 32.000000 32.000000 32.000000 32.000000
32.000000 32.000000 32.000000 32.000000 32.000000 32.000000 32.000000 32.000000
32.000000 32.000000 32.000000 32.000000 32.000000 32.000000 32.000000 32.000000
32.000000 32.000000 32.000000 32.000000 32.000000 32.000000 32.000000 32.000000
32.000000 32.000000 32.000000 32.000000 32.000000 32.000000 32.000000 32.000000
32.000000 32.000000 32.000000 32.000000 32.000000 32.000000 32.000000 32.000000
32.000000 32.000000 32.000000 32.000000 32.000000 32.000000 32.000000 32.000000
32.000000 32.000000 32.000000 32.000000 32.000000 32.000000 32.000000 32.000000
32.000000 32.000000 32.000000 32.000000 32.000000 32.000000 32.000000 32.000000
32.000000 32.000000 32.000000 32.000000 32.000000 32.000000 32.000000 32.000000
32.000000 32.000000 32.000000 32.000000 32.000000 32.000000 32.000000 32.000000
32.000000 32.000000 32.000000 32.000000 32.000000 32.000000 32.000000 32.000000
32.000000 32.000000 32.000000 32.000000 32.000000 32.000000 32.000000 32.000000
32.000000 32.000000 32.000000 32.000000 32.000000 32.000000 32.000000 32.000000
32.000000 32.000000 32.000000 32.000000 32.000000 32.000000 32.000000 32.000000
32.000000 32.000000 32.000000 32.000000 32.000000 32.000000 32.000000 32.000000
32.000000 32.000000 32.000000 32.000000 32.000000 32.000000 32.000000 32.000000
32.000000 32.000000 32.000000 32.000000 32.000000
32.377778 32.400437 32.423110 32.445810 32.468550 32.491346 32.514206 32.537148
32.560179 32.583316 32.606566 32.629945 32.653457 32.677119 32.700931 32.724911
32.749057 32.773385 32.797890 32.822588 32.847471 32.872554 32.897825 32.923299
32.948959 32.974821 33.000864 33.027100 33.053506 33.080094 33.106837 33.133743
33.160784 33.187965 33.215255 33.242657 33.270136 33.297696 33.325296 33.352938
33.380582 33.408225 33.435824 33.463377 33.490838 33.518202 33.545425 33.572498
33.599375 33.626049 33.652472 33.678636 33.704494 33.730036 33.755217 33.780026
33.804418 33.828385 33.851882 33.874901 33.897399 33.919369 33.940771 33.961598
33.981812 34.001407 34.020350 34.038635 34.056230 34.073133 34.089314 34.104771
34.119479 34.133436 34.146620 34.159030 34.170648 34.181472 34.191486 34.200692
34.209076 34.216637 34.223367 34.229265 34.234323 34.238542 34.241917 34.244447
34.246131 34.246966 34.246954 34.246094 34.244386 34.241831 34.238433 34.234190
34.229109 34.223188 34.216437 34.208854 34.200450 34.191226 34.181193 34.170352
34.158720 34.146296 34.133100 34.119132 34.104416 34.088952 34.072767 34.055863
34.038269 34.019988 34.001053 33.981468 33.961269 33.940460 33.919080 33.897137
33.874670 33.851687 33.828231 33.804310 33.779970 33.755219 33.730104 33.704633
33.678855 33.652777 33.626448 33.599876 33.573109 33.546155 33.519062 33.491836
33.464524 33.437131 33.409702 33.382240 33.354790 33.327353 33.299971 33.272642
33.245407 33.218262 33.191245 33.164350 33.137610 33.111020 33.084609 33.058369
33.032326 33.006470 32.980825 32.955378 32.930149 32.905124 32.880321 32.855723
32.831344 32.807167 32.783203 32.759434 32.735867 32.712483 32.689287 32.666258
32.643400 32.620692 32.598132 32.575702 32.553397 32.531199 32.509100 32.487082
32.465137 32.443247 32.421400 32.399582 32.377778
32.755556 32.800884 32.846241 32.891651 32.937144 32.982742 33.028477 33.074367
33.120446 33.166726 33.213244 33.260007 33.307051 33.354379 33.402026 33.449990
33.498307 33.546966 33.596003 33.645403 33.695199 33.745368 33.795942 33.846893
33.898250 33.949976 34.002099 34.054575 34.107428 34.160609 34.214136 34.267955
34.322080 34.376449 34.431074 34.485886 34.540892 34.596019 34.651269 34.706563
34.761900 34.817196 34.872447 34.927563 34.982537 35.037278 35.091775 35.145933
35.199740 35.253100 35.305998 35.358338 35.410103 35.461200 35.511609 35.561238
35.610070 35.658014 35.705053 35.751100 35.796138 35.840086 35.882929 35.924588
35.965053 36.004249 36.042167 36.078740 36.113961 36.147769 36.180158 36.211074
36.240513 36.268428 36.294816 36.319636 36.342887 36.364534 36.384578 36.402989
36.419767 36.434890 36.448357 36.460152 36.470275 36.478713 36.485466 36.490527
36.493895 36.495566 36.495542 36.493821 36.490404 36.485295 36.478494 36.470009
36.459840 36.448000 36.434489 36.419324 36.402506 36.384057 36.363978 36.342297
36.319015 36.294167 36.267755 36.239820 36.210364 36.179436 36.147039 36.113228
36.078010 36.041445 36.003542 35.964367 35.923931 35.882308 35.839509 35.795615
35.750638 35.704663 35.657706 35.609856 35.561128 35.511616 35.461336 35.410383
35.358775 35.306608 35.253898 35.200742 35.147157 35.093238 35.038999 34.984536
34.929859 34.875062 34.820152 34.765219 34.710269 34.655385 34.600571 34.545906
34.491387 34.437091 34.383009 34.329213 34.275690 34.222504 34.169640 34.117155
34.065030 34.013315 33.961987 33.911090 33.860597 33.810545 33.760905 33.711707
33.662918 33.614563 33.566607 33.519066 33.471906 33.425136 33.378719 33.332660
33.286921 33.241502 33.196363 33.151499 33.106872 33.062470 33.018257 32.974216
32.930311 32.886524 32.842819 32.799173 32.755556
33.133333 33.201353 33.269412 33.337556 33.405818 33.474246 33.542870 33.611739
33.680877 33.750337 33.820132 33.890319 33.960903 34.031941 34.103430 34.175426
34.247920 34.320963 34.394539 34.468698 34.543412 34.618730 34.694614 34.771109
34.848168 34.925832 35.004042 35.082835 35.162143 35.241998 35.322321 35.403137
35.484359 35.566006 35.647980 35.730296 35.812845 35.895637 35.978554 36.061600
36.144651 36.227702 36.310624 36.393408 36.475918 36.558140 36.639934 36.721282
36.802042 36.882192 36.961588 37.040207 37.117903 37.194653 37.270314 37.344860
37.418152 37.490165 37.560765 37.629926 37.697522 37.763529 37.827827 37.890395
37.951121 38.009988 38.066890 38.121815 38.174668 38.225437 38.274037 38.320462
38.364634 38.406549 38.446142 38.483409 38.518293 38.550795 38.580865 38.608506
38.633677 38.656380 38.676584 38.694291 38.709477 38.722143 38.732274 38.739871
38.744924 38.747433 38.747396 38.744813 38.739687 38.732018 38.721816 38.709078
38.693824 38.676049 38.655780 38.633014 38.607783 38.580085 38.549961 38.517409
38.482479 38.445171 38.405543 38.363596 38.319399 38.272956 38.224344 38.173571
38.120723 38.065810 38.008930 37.950096 37.889413 37.826898 37.762667 37.696739
37.629237 37.560183 37.489707 37.417834 37.344699 37.270328 37.194862 37.118327
37.040866 36.962507 36.883393 36.803549 36.723122 36.642133 36.560726 36.478920
36.396857 36.314551 36.232140 36.149633 36.067163 35.984733 35.902469 35.820370
35.738553 35.657010 35.575852 35.495063 35.414746 35.334878 35.255551 35.176740
35.098524 35.020872 34.943854 34.867434 34.791672 34.716524 34.642043 34.568182
34.494980 34.422387 34.350434 34.279068 34.208310 34.138104 34.068463 33.999328
33.930704 33.862532 33.794807 33.727472 33.660514 33.593876 33.527537 33.461444
33.395568 33.329857 33.264279 33.198784 33.133333
33.511111 33.601851 33.692647 33.783550 33.874620 33.965900 34.057457 34.149325
34.241573 34.334226 34.427356 34.520978 34.615166 34.709924 34.805325 34.901363
34.998109 35.095546 35.193743 35.292669 35.392392 35.492867 35.594158 35.696207
35.799073 35.902684 36.007094 36.112217 36.218099 36.324642 36.431885 36.539716
36.648167 36.757111 36.866573 36.976414 37.086650 37.197132 37.307865 37.418690
37.529606 37.640443 37.751192 37.861676 37.971878 38.081615 38.190865 38.299438
38.407308 38.514284 38.620334 38.725266 38.829045 38.931483 39.032543 39.132038
39.229932 39.326044 39.420339 39.512642 39.602922 39.691012 39.776883 39.860379
39.941476 40.020027 40.096014 40.169302 40.239875 40.307613 40.372504 40.434441
40.493416 40.549333 40.602190 40.651903 40.698471 40.741824 40.781964 40.818831
40.852429 40.882709 40.909676 40.933291 40.953559 40.970452 40.983973 40.994104
41.000848 41.004194 41.004145 41.000701 40.993860 40.983632 40.970016 40.953029
40.932670 40.908965 40.881912 40.851548 40.817870 40.780927 40.740716 40.697296
40.650667 40.600899 40.547994 40.492036 40.433028 40.371067 40.306160 40.238417
40.167849 40.094579 40.018622 39.940113 39.859074 39.775650 39.689868 39.601884
39.511728 39.419569 39.325438 39.229513 39.131828 39.032568 38.931767 38.829617
38.726152 38.621565 38.515891 38.409325 38.301898 38.193803 38.085070 37.975888
37.866281 37.756435 37.646367 37.536257 37.426114 37.316111 37.206249 37.096691
36.987431 36.878622 36.770247 36.662449 36.555203 36.448638 36.342723 36.237572
36.133145 36.029546 35.926726 35.824774 35.723636 35.623387 35.523966 35.425434
35.327727 35.230891 35.134857 35.039660 34.945227 34.851579 34.758641 34.666423
34.574848 34.483914 34.393545 34.303728 34.214387 34.125498 34.036988 33.948825
33.860936 33.773282 33.685794 33.598425 33.511111
33.888889 34.002392 34.115961 34.229671 34.343581 34.457769 34.572285 34.687214
34.802593 34.918511 35.034994 35.152132 35.269938 35.388505 35.507831 35.628007
35.749018 35.870954 35.993783 36.117592 36.242334 36.368092 36.494801 36.622538
36.751224 36.880927 37.011551 37.143156 37.275630 37.409024 37.543209 37.678226
37.813929 37.950351 38.087327 38.224882 38.362836 38.501202 38.639786 38.778591
38.917412 39.056240 39.194858 39.333250 39.471190 39.608652 39.745403 39.881412
40.016440 40.150450 40.283201 40.414651 40.544561 40.672887 40.799390 40.924027
41.046565 41.166960 41.284989 41.400609 41.513606 41.623942 41.731415 41.835991
41.937481 42.035857 42.130944 42.222721 42.311027 42.395846 42.477036 42.554584
42.628365 42.698370 42.764491 42.826723 42.884972 42.939239 42.989444 43.035588
43.077608 43.115505 43.149229 43.178784 43.204129 43.225269 43.242177 43.254855
43.263288 43.267476 43.267415 43.263105 43.254551 43.241752 43.224726 43.203469
43.178009 43.148343 43.114512 43.076510 43.034391 42.988152 42.937859 42.883509
42.825184 42.762883 42.696703 42.626647 42.552825 42.475247 42.394038 42.309213
42.220913 42.129159 42.034109 41.935787 41.834368 41.729883 41.622521 41.512318
41.399476 41.284036 41.166214 41.046051 40.923776 40.799431 40.673252 40.545285
40.415770 40.284750 40.152470 40.018971 39.884498 39.749087 39.612982 39.476213
39.339018 39.201423 39.063657 38.925737 38.787884 38.650106 38.512612 38.375400
38.238668 38.102402 37.966786 37.831796 37.697600 37.564165 37.431642 37.299987
37.169335 37.039633 36.910999 36.783369 36.656846 36.531357 36.406988 36.283660
36.161439 36.040243 35.920121 35.800985 35.682868 35.565679 35.449436 35.334044
35.219508 35.105731 34.992704 34.880332 34.768590 34.657386 34.546684 34.436393
34.326466 34.216817 34.107390 33.998102 33.888889
34.266667 34.402981 34.539380 34.675939 34.812753 34.949884 35.087433 35.225452
35.364046 35.503254 35.643183 35.783857 35.925386 36.067778 36.211144 36.355474
36.500876 36.647324 36.794924 36.943629 37.093540 37.244593 37.396883 37.550323
37.705002 37.860814 38.017837 38.175946 38.335208 38.495478 38.656811 38.819043
38.982218 39.146150 39.310871 39.476177 39.642087 39.808380 39.975062 40.141894
40.308872 40.475742 40.642488 40.808843 40.974782 41.140027 41.304543 41.468047
41.630495 41.791600 41.951311 42.109340 42.265634 42.419905 42.572098 42.721932
42.869350 43.014080 43.156067 43.295049 43.430975 43.563596 43.692868 43.818556
43.940621 44.058847 44.173200 44.283483 44.389671 44.491584 44.589203 44.682369
44.771071 44.855166 44.934649 45.009399 45.079413 45.144589 45.204927 45.260343
45.310840 45.356347 45.396872 45.432359 45.462814 45.488197 45.508512 45.523734
45.533866 45.538895 45.538822 45.533647 45.523371 45.508005 45.487547 45.462025
45.431434 45.395814 45.355160 45.309528 45.258912 45.203384 45.142939 45.077665
45.007560 44.932729 44.853174 44.769019 44.680268 44.587067 44.489425 44.387505
44.281326 44.171070 44.056761 43.938601 43.816622 43.691043 43.561905 43.429443
43.293703 43.154938 43.013198 42.868749 42.721645 42.572163 42.420359 42.266518
42.110697 41.953186 41.794039 41.633549 41.471765 41.308981 41.145239 40.980827
40.815782 40.650383 40.484660 40.318880 40.153062 39.987464 39.822090 39.657184
39.492738 39.328981 39.165892 39.003680 38.842313 38.681982 38.522641 38.364462
38.207385 38.051563 37.896926 37.743606 37.591521 37.440782 37.291301 37.143166
36.996281 36.850715 36.706364 36.563279 36.421351 36.280610 36.140944 36.002367
35.864763 35.728128 35.592347 35.457400 35.323173 35.189630 35.056659 34.924212
34.792180 34.660502 34.529077 34.397829 34.266667
34.644444 34.803632 34.962914 35.122395 35.282158 35.442314 35.602935 35.764138
35.925979 36.088581 36.251982 36.416310 36.581584 36.747933 36.915357 37.083984
37.253794 37.424912 37.597298 37.771070 37.946167 38.122701 38.300588 38.479931
38.660623 38.842758 39.026203 39.211043 39.397121 39.584508 39.773023 39.962724
40.153408 40.345118 40.537626 40.730963 40.924879 41.119389 41.314223 41.509382
41.704578 41.899796 42.094735 42.289366 42.483372 42.676716 42.869069 43.060383
43.250325 43.438837 43.625583 43.810498 43.993248 44.173765 44.351718 44.527038
44.699402 44.868742 45.034747 45.197352 45.356259 45.511411 45.662525 45.809551
45.952227 46.090509 46.224155 46.353133 46.477220 46.596393 46.710454 46.819385
46.923011 47.021323 47.114169 47.201544 47.283319 47.359494 47.429959 47.494720
47.553685 47.606863 47.654180 47.695644 47.731201 47.760857 47.784575 47.802359
47.814188 47.820063 47.819978 47.813933 47.801937 47.783986 47.760103 47.730285
47.694570 47.652951 47.605484 47.552163 47.493059 47.428167 47.357579 47.281290
47.199410 47.111940 47.019012 46.920630 46.816947 46.707975 46.593889 46.474708
46.350632 46.221686 46.088092 45.949886 45.807312 45.660413 45.509456 45.354490
45.195802 45.033449 44.867733 44.698719 44.526724 44.351813 44.174316 43.994300
43.812103 43.627791 43.441705 43.253909 43.064744 42.874267 42.682819 42.490447
42.297484 42.103969 41.910225 41.716277 41.522437 41.328716 41.135410 40.942517
40.750312 40.558781 40.368179 40.178475 39.989904 39.802419 39.616232 39.431282
39.247758 39.065585 38.884928 38.705698 38.528037 38.351845 38.177239 38.004109
37.832548 37.662438 37.493848 37.326654 37.160903 36.996464 36.833363 36.671466
36.510778 36.351164 36.192610 36.034981 35.878243 35.722265 35.566995 35.412306
35.258132 35.104351 34.950882 34.797611 34.644444
35.022222 35.204350 35.386592 35.569051 35.751852 35.935082 36.118875 36.303302
36.488505 36.674535 36.861537 37.049547 37.238709 37.429037 37.620679 37.813623
38.008016 38.203822 38.401184 38.600042 38.800531 39.002565 39.206272 39.411540
39.618484 39.826967 40.037091 40.248692 40.461857 40.676396 40.892381 41.109593
41.328090 41.547625 41.768240 41.989662 42.211915 42.434704 42.658034 42.881588
43.105355 43.328997 43.552489 43.775475 43.997915 44.219441 44.439999 44.659211
44.877013 45.093021 45.307163 45.519053 45.728614 45.935462 46.139518 46.340405
46.538044 46.732070 46.922406 47.108700 47.290884 47.468623 47.641854 47.810266
47.973804 48.132180 48.285348 48.433046 48.575240 48.711690 48.842373 48.967077
49.085788 49.198319 49.304663 49.404660 49.498310 49.585476 49.666163 49.740259
49.807770 49.868605 49.922774 49.970205 50.010908 50.044830 50.071978 50.092319
50.105859 50.112579 50.112483 50.105570 50.091839 50.071309 50.043973 50.009867
49.968985 49.921378 49.867039 49.806040 49.738372 49.664128 49.583301 49.496005
49.402236 49.302132 49.195694 49.083084 48.964310 48.839559 48.708848 48.572389
48.430209 48.282548 48.129440 47.971152 47.807730 47.639465 47.466412 47.288887
47.106953 46.920948 46.730942 46.537291 46.340071 46.139654 45.936117 45.729844
45.520914 45.309715 45.096326 44.881138 44.664222 44.445970 44.226445 44.006031
43.784783 43.563074 43.340945 43.118758 42.896539 42.674632 42.453046 42.232108
42.011809 41.792454 41.574017 41.356778 41.140693 40.926018 40.712692 40.500943
40.290695 40.082147 39.875208 39.670051 39.466570 39.264910 39.064951 38.866813
38.670365 38.475700 38.282676 38.091362 37.901609 37.713458 37.526759 37.341527
37.157608 36.974996 36.793535 36.613199 36.433832 36.255387 36.077714 35.900745
35.724337 35.548404 35.372812 35.197460 35.022222
35.400000 35.605149 35.810421 36.015951 36.221849 36.428260 36.635274 36.843048
37.051652 37.261248 37.471886 37.683730 37.896809 38.111289 38.327171 38.544622
38.763617 38.984320 39.206677 39.430846 39.656747 39.884527 40.114076 40.345532
40.578754 40.813867 41.050700 41.289362 41.529652 41.771663 42.015161 42.260222
42.506582 42.754298 43.003078 43.252956 43.503614 43.755066 44.006968 44.259314
44.511736 44.764209 45.016345 45.268102 45.519072 45.769199 46.018062 46.265592
46.511357 46.755278 46.996919 47.236194 47.472666 47.706246 47.936502 48.163343
48.386348 48.605427 48.820176 49.030509 49.236040 49.436692 49.632101 49.822199
50.006649 50.185392 50.358120 50.524786 50.685109 50.839057 50.986377 51.127048
51.260847 51.387763 51.507604 51.620364 51.725881 51.824158 51.915055 51.998582
52.074625 52.143196 52.204203 52.257659 52.303495 52.341723 52.372294 52.395216
52.410462 52.418036 52.417928 52.410139 52.394680 52.371546 52.340766 52.302332
52.256295 52.202642 52.141445 52.072692 51.996474 51.912780 51.821727 51.723306
51.617656 51.504776 51.384832 51.257827 51.123958 50.983235 50.835885 50.681928
50.521621 50.354996 50.182338 50.003694 49.819376 49.629443 49.434236 49.233825
49.028576 48.818568 48.604192 48.385533 48.163001 47.936688 47.707018 47.474084
47.238323 46.999825 46.759032 46.516032 46.271266 46.024815 45.777116 45.528239
45.278612 45.028291 44.777691 44.526854 44.276176 44.025680 43.775745 43.526372
43.277917 43.030363 42.784037 42.538902 42.295260 42.053052 41.812550 41.573677
41.336674 41.101446 40.868202 40.636830 40.407509 40.180112 39.954786 39.731391
39.510044 39.290592 39.073122 38.857475 38.643707 38.431652 38.221339 38.012596
37.805427 37.599657 37.395267 37.192080 36.990054 36.789016 36.588900 36.389540
36.190849 35.992670 35.794896 35.597380 35.400000
35.777778 36.006031 36.234429 36.463101 36.692207 36.921857 37.152221 37.383390
37.615541 37.848743 38.083178 38.318892 38.556068 38.794726 39.035050 39.277031
39.520851 39.766470 40.014066 40.263567 40.515143 40.768690 41.024366 41.282035
41.541841 41.803614 42.067484 42.333244 42.601007 42.870532 43.141913 43.414874
43.689488 43.965446 44.242798 44.521204 44.800691 45.080889 45.361802 45.643032
45.924561 46.205965 46.487208 46.767842 47.047812 47.326654 47.604295 47.880259
48.154459 48.426411 48.696019 48.962796 49.226638 49.487063 49.743963 49.996864
50.245661 50.489893 50.729460 50.963919 51.193178 51.416819 51.634757 51.846604
52.052288 52.251447 52.444026 52.629695 52.808410 52.979877 53.144064 53.300712
53.449800 53.591102 53.724610 53.850127 53.967655 54.077028 54.178255 54.271198
54.355869 54.432157 54.500077 54.559543 54.610567 54.653088 54.687117 54.712613
54.729583 54.738007 54.737888 54.729227 54.712021 54.686292 54.652032 54.609285
54.558038 54.498356 54.430226 54.353736 54.268872 54.175747 54.074348 53.964815
53.847141 53.721493 53.587870 53.446472 53.297306 53.140604 52.976382 52.804908
52.626211 52.440590 52.248089 52.049041 51.843503 51.631842 51.414127 51.190755
50.961810 50.727713 50.488560 50.244797 49.996525 49.744212 49.487962 49.228257
48.965204 48.699292 48.430626 48.159699 47.886608 47.611844 47.335496 47.058045
46.779566 46.500530 46.220993 45.941409 45.661816 45.382646 45.103916 44.826033
44.548991 44.273171 43.998544 43.725459 43.453865 43.184078 42.916026 42.649992
42.385881 42.123942 41.864060 41.606450 41.350979 41.097827 40.846845 40.598177
40.351662 40.107411 39.865249 39.625256 39.387248 39.151272 38.917139 38.684867
38.454262 38.225312 37.997823 37.771757 37.546922 37.323253 37.100563 36.878764
36.657676 36.437190 36.217136 35.997384 35.777778
36.155556 36.407010 36.658617 36.910546 37.162930 37.415950 37.669722 37.924435
38.180180 38.437157 38.695429 38.955200 39.216506 39.479552 39.744345 40.011088
40.279756 40.550547 40.823403 41.098515 41.375788 41.655404 41.937232 42.221440
42.507860 42.796643 43.087585 43.380816 43.676096 43.973534 44.272849 44.574131
44.877061 45.181702 45.487701 45.795097 46.103499 46.412923 46.722944 47.033554
47.344298 47.655143 47.965609 48.275640 48.584734 48.892815 49.199365 49.504290
49.807059 50.107566 50.405275 50.700069 50.991413 51.279184 51.562855 51.842301
52.117008 52.386855 52.651346 52.910368 53.163448 53.410484 53.651030 53.885000
54.111980 54.331897 54.544373 54.749351 54.946489 55.135745 55.316817 55.489678
55.654060 55.809951 55.957120 56.095566 56.225093 56.345707 56.457245 56.559720
56.652999 56.737097 56.811911 56.877455 56.933651 56.980514 57.017989 57.046086
57.064774 57.074059 57.073929 57.064386 57.045441 57.017089 56.979362 56.932252
56.875813 56.810033 56.734991 56.650673 56.557184 56.454509 56.342784 56.221996
56.092311 55.953722 55.806428 55.650432 55.485967 55.313046 55.131940 54.942675
54.745559 54.540634 54.328246 54.108452 53.881635 53.647868 53.407570 53.160829
52.908096 52.649473 52.385439 52.116106 51.841980 51.563178 51.280226 50.993244
50.702771 50.408927 50.112257 49.812876 49.511329 49.207724 48.902598 48.596046
48.288594 47.980319 47.671732 47.362888 47.054277 46.745932 46.438316 46.131437
45.825730 45.521178 45.218181 44.916698 44.617095 44.319305 44.023656 43.730058
43.438802 43.149773 42.863226 42.579023 42.297380 42.018141 41.741485 41.467238
41.195541 40.926206 40.659338 40.394739 40.132476 39.872343 39.614374 39.358357
39.104293 38.851969 38.601354 38.352236 38.104555 37.858101 37.612791 37.368418
37.124875 36.881966 36.639560 36.397474 36.155556
36.533333 36.808087 37.083017 37.358283 37.634077 37.910537 38.187867 38.466180
38.745692 39.026489 39.308791 39.592657 39.878309 40.165775 40.455277 40.746808
41.040589 41.336576 41.634982 41.935727 42.239014 42.544724 42.853047 43.163822
43.477225 43.793053 44.111462 44.432208 44.755425 45.080828 45.408526 45.738192
46.069910 46.403311 46.738453 47.074927 47.412761 47.751512 48.091179 48.431282
48.771795 49.112206 49.452462 49.792026 50.130820 50.468285 50.804323 51.138358
51.470275 51.799489 52.125871 52.448834 52.768240 53.083505 53.394490 53.700620
54.001758 54.297348 54.587258 54.870956 55.148320 55.418848 55.682432 55.938604
56.187273 56.428008 56.660735 56.885063 57.100939 57.308011 57.506244 57.695328
57.875243 58.045721 58.206755 58.358118 58.499813 58.631648 58.753637 58.865622
58.967620 59.059505 59.141297 59.212899 59.274330 59.325518 59.366479 59.397167
59.417593 59.427734 59.427594 59.417174 59.396469 59.365505 59.324272 59.272817
59.211124 59.139268 59.057228 58.965106 58.862880 58.750681 58.628489 58.496466
58.354600 58.203084 58.041915 57.871325 57.691321 57.502173 57.303904 57.096825
56.880974 56.656705 56.424074 56.183476 55.934984 55.679036 55.415723 55.145520
54.868533 54.585272 54.295860 54.000834 53.700328 53.394904 53.084701 52.770300
52.451842 52.129919 51.804668 51.476685 51.146100 50.813507 50.479021 50.143227
49.806223 49.468579 49.130371 48.792146 48.453959 48.116330 47.779286 47.443316
47.108420 46.775053 46.443185 46.113236 45.785146 45.459295 45.135597 44.814390
44.495562 44.179408 43.865793 43.554970 43.246779 42.941434 42.638756 42.338913
42.041712 41.747281 41.455411 41.166192 40.879403 40.595097 40.313045 40.033264
39.755519 39.479795 39.205855 38.933650 38.662947 38.393665 38.125578 37.858577
37.592443 37.327042 37.062167 36.797662 36.533333
36.911111 37.209276 37.507624 37.806359 38.105643 38.405692 38.706646 39.008734
39.312065 39.616879 39.923254 40.231435 40.541469 40.853599 41.167839 41.484431
41.803349 42.124831 42.448811 42.775516 43.104842 43.437001 43.771846 44.109574
44.449992 44.793279 45.139196 45.487900 45.839106 46.192946 46.549089 46.907639
47.268221 47.630908 47.995282 48.361386 48.728758 49.097410 49.466842 49.837033
50.207448 50.578036 50.948229 51.317949 51.686600 52.054080 52.419771 52.783550
53.144784 53.503335 53.858562 54.210313 54.557949 54.901313 55.239773 55.573171
55.900890 56.222778 56.538242 56.847139 57.148906 57.443413 57.730133 58.008955
58.279390 58.541348 58.794383 59.038425 59.273074 59.498282 59.713693 59.919278
60.114728 60.300030 60.474919 60.639398 60.793241 60.936463 61.068877 61.190504
61.301193 61.400969 61.489714 61.567451 61.634093 61.689659 61.734091 61.767402
61.789558 61.800566 61.800416 61.789107 61.766653 61.733046 61.688323 61.632469
61.565547 61.487536 61.398527 61.298496 61.187564 61.065706 60.933076 60.789653
60.635627 60.470984 60.295952 60.110530 59.914986 59.709333 59.493885 59.268671
59.034051 58.790074 58.537145 58.275336 58.005096 57.726517 57.440093 57.145937
56.844582 56.536158 56.221235 55.899957 55.572925 55.240291 54.902681 54.560252
54.213646 53.863019 53.509020 53.151802 52.792013 52.429795 52.065788 51.700117
51.333409 50.965766 50.597796 50.229575 49.861684 49.494171 49.127585 48.761944
48.397760 48.035022 47.674200 47.315252 46.958606 46.604189 46.252386 45.903093
45.556649 45.212921 44.872206 44.534342 44.199581 43.867738 43.539018 43.213218
42.890498 42.570637 42.253751 41.939606 41.628278 41.319520 41.013368 40.709570
40.408123 40.108772 39.811477 39.515983 39.222217 38.929929 38.639014 38.349228
38.060438 37.772410 37.484987 37.197948 36.911111
37.288889 37.610574 37.932469 38.254764 38.577687 38.901402 39.226153 39.552075
39.879423 40.208302 40.538973 40.871508 41.206171 41.542999 41.882253 42.223932
42.568293 42.915293 43.265182 43.617872 43.973602 44.332237 44.694001 45.058713
45.426575 45.797359 46.171246 46.547956 46.927643 47.309980 47.695091 48.082600
48.472599 48.864662 49.258851 49.654691 50.052209 50.450886 50.850715 51.251135
51.652105 52.053026 52.453824 52.853869 53.253058 53.650732 54.046763 54.440473
54.831712 55.219790 55.604542 55.985271 56.361804 56.733451 57.100032 57.460870
57.815790 58.164136 58.505741 58.839979 59.166696 59.485303 59.795664 60.097233
60.389895 60.673149 60.946906 61.210712 61.464501 61.707872 61.940781 62.162875
62.374134 62.574253 62.763229 62.940803 63.106988 63.261567 63.404563 63.535799
63.655304 63.762938 63.858729 63.942572 64.014493 64.074416 64.122362 64.158281
64.182189 64.194060 64.193899 64.181709 64.157484 64.121249 64.072992 64.012764
63.940544 63.856410 63.760336 63.652431 63.532667 63.401186 63.257960 63.103167
62.936788 62.759040 62.569913 62.369668 62.158309 61.936145 61.703197 61.459823
61.206065 60.942333 60.668691 60.385599 60.093147 59.791843 59.481801 59.163575
58.837300 58.503575 58.162552 57.814866 57.460685 57.100672 56.735005 56.364368
55.988942 55.609426 55.225996 54.839357 54.449673 54.057647 53.663428 53.267705
52.870607 52.472803 52.074396 51.676029 51.277776 50.880245 50.483479 50.088049
49.693964 49.301753 48.911390 48.523359 48.137599 47.754549 47.374112 46.996678
46.622120 46.250779 45.882496 45.517562 45.155794 44.797431 44.442267 44.090493
43.741881 43.396577 43.054333 42.715251 42.379070 42.045846 41.715311 41.387478
41.062072 40.739068 40.418189 40.099371 39.782341 39.466999 39.153078 38.840447
38.528846 38.218116 37.908012 37.598345 37.288889
37.666667 38.011996 38.357543 38.703544 39.050192 39.397742 39.746359 40.096311
40.447731 40.800897 41.155908 41.513047 41.872375 42.234177 42.598474 42.965548
43.335377 43.708236 44.084057 44.463104 44.845262 45.230779 45.619491 46.011626
46.406969 46.805725 47.207625 47.612850 48.021076 48.432453 48.846606 49.263649
49.683155 50.105203 50.529313 50.955528 51.383318 51.812687 52.243058 52.674398
53.106086 53.538052 53.969635 54.400733 54.830653 55.259260 55.685835 56.110219
56.531672 56.950017 57.364504 57.774941 58.180580 58.581219 58.976121 59.365085
59.747391 60.122847 60.490760 60.850950 61.202763 61.546037 61.880161 62.204996
62.519979 62.824998 63.119543 63.403529 63.676500 63.938398 64.188823 64.427741
64.654807 64.870009 65.073052 65.263945 65.442440 65.608559 65.762099 65.903090
66.031371 66.146975 66.249777 66.339809 66.416979 66.481315 66.532753 66.571314
66.596962 66.609706 66.609537 66.596453 66.570469 66.531574 66.479807 66.415148
66.337662 66.247321 66.144221 66.028330 65.899775 65.758524 65.604740 65.438396
65.259696 65.068620 64.865418 64.650083 64.422914 64.183922 63.933459 63.671558
63.398625 63.114719 62.820301 62.515456 62.200701 61.876150 61.542371 61.199505
60.848169 60.488527 60.121240 59.746491 59.364979 58.976899 58.582979 58.183420
57.778971 57.369833 56.956764 56.539959 56.120175 55.697594 55.272964 54.846446
54.418770 53.990071 53.561054 53.131823 52.703050 52.274805 51.847721 51.421830
50.997724 50.575396 50.155391 49.737663 49.322707 48.910440 48.501304 48.095181
47.692460 47.292989 46.897102 46.504617 46.115816 45.730487 45.348860 44.970699
44.596182 44.225054 43.857442 43.493074 43.132029 42.774023 42.419089 42.066934
41.717549 41.370635 41.026142 40.683773 40.343437 40.004841 39.667860 39.332208
38.997727 38.664144 38.331271 37.998850 37.666667
38.044444 38.413537 38.782875 39.152680 39.523218 39.894683 40.267357 40.641402
41.017112 41.394615 41.774213 42.155994 42.540265 42.927072 43.316721 43.709216
44.104854 44.503594 44.905723 45.311150 45.720147 46.132572 46.548679 46.968270
47.391577 47.818346 48.248783 48.682576 49.119900 49.560386 50.004174 50.450839
50.900482 51.352621 51.807317 52.264035 52.722793 53.183003 53.644642 54.107071
54.570228 55.033427 55.496568 55.958926 56.420364 56.880124 57.338039 57.793325
58.245791 58.694636 59.139650 59.580028 60.015547 60.445406 60.869380 61.286684
61.697096 62.099858 62.494758 62.881075 63.258617 63.626706 63.985173 64.333392
64.671223 64.998095 65.313898 65.618122 65.910688 66.191143 66.459441 66.715189
66.958365 67.188635 67.406001 67.610181 67.801196 67.978814 68.143066 68.293767