# vtk DataFile Version 3.0
Steady-state temperature (Jacobi)
ASCII
DATASET STRUCTURED_POINTS
DIMENSIONS 181 181 1
ORIGIN 0.0 0.0 0.0
SPACING 0.05 0.05 1.0
POINT_DATA 32761
SCALARS Temperature float 1
LOOKUP_TABLE default
32.000000 32.000000 32.000000 32.000000 32.000000 32.000000 32.000000 32.000000
32.000000 32.000000 32.000000 32.000000 32.000000 32.000000 32.000000 32.000000
32.000000 32.000000 32.000000 32.000000 32.000000 32.000000 32.000000 32.000000
32.000000 32.000000 32.000000 32.000000 32.000000 32.000000 32.000000 32.000000
32.000000 32.000000 32.000000 32.000000 32.000000 32.000000 32.000000 32.000000
32.000000 32.000000 32.000000 32.000000 32.000000 32.000000 32.000000 32.000000
32.000000 32.000000 32.000000 32.000000 32.000000 32.000000 32.000000 32.000000
32.000000 32.000000 32.000000 32.000000 32.000000 32.000000 32.000000 32.000000
32.000000 32.000000 32.000000 32.000000 32.000000 32.000000 32.000000 32.000000
32.000000 32.000000 32.000000 32.000000 32.000000 32.000000 32.000000 32.000000
32.000000 32.000000 32.000000 32.000000 32.000000 32.000000 32.000000 32.000000
32.000000 32.000000 32.000000 32.000000 32.000000 32.000000 32.000000 32.000000
32.000000 32.000000 32.000000 32.000000 32.000000 32.000000 32.000000 32.000000
32.000000 32.000000 32.000000 32.000000 32.000000 32.000000 32.000000 32.000000
32.000000 32.000000 32.000000 32.000000 32.000000 32.000000 32.000000 32.000000
32.000000 32.000000 32.000000 32.000000 32.000000 32.000000 32.000000 32.000000
32.000000 32.000000 32.000000 32.000000 32.000000 32.000000 32.000000 32.000000
32.000000 32.000000 32.000000 32.000000 32.000000 32.000000 32.000000 32.000000
32.000000 32.000000 32.000000 32.000000 32.000000 32.000000 32.000000 32.000000
32.000000 32.000000 32.000000 32.000000 32.000000 32.000000 32.000000 32.000000
32.000000 32.000000 32.000000 32.000000 32.000000 32.000000 32.000000 32.000000
32.000000 32.000000 32.000000 32.000000 32.000000 32.000000 32.000000 32.000000
32.000000 32.000000 32.000000 32.000000 32.000000
32.377778 32.397015 32.416269 32.435558 32.454899 32.474310 32.493805 32.513405
32.533119 32.552972 32.572968 32.593132 32.613468 32.633999 32.654725 32.675671
32.696832 32.718234 32.739868 32.761759 32.783895 32.806298 32.828954 32.851885
32.875070 32.898531 32.922244 32.946229 32.970456 32.994945 33.019663 33.044626
33.069797 33.095192 33.120768 33.146540 33.172462 33.198545 33.224741 33.251059
33.277447 33.303913 33.330402 33.356919 33.383408 33.409873 33.436255 33.462556
33.488717 33.514738 33.540560 33.566182 33.591545 33.616646 33.641428 33.665887
33.689968 33.713667 33.736929 33.759752 33.782082 33.803918 33.825209 33.845954
33.866106 33.885663 33.904582 33.922864 33.940467 33.957393 33.973606 33.989106
34.003861 34.017874 34.031115 34.043587 34.055266 34.066154 34.076229 34.085495
34.093934 34.101550 34.108327 34.114268 34.119362 34.123612 34.127009 34.129556
34.131247 34.132083 34.132063 34.131187 34.129456 34.126870 34.123434 34.119144
34.114011 34.108031 34.101215 34.093562 34.085085 34.075781 34.065668 34.054744
34.043029 34.030522 34.017246 34.003200 33.988412 33.972881 33.956638 33.939684
33.922054 33.903747 33.884804 33.865226 33.845055 33.824294 33.802990 33.781144
33.758807 33.735980 33.712719 33.689025 33.664953 33.640507 33.615745 33.590668
33.565336 33.539750 33.513972 33.488001 33.461898 33.435662 33.409354 33.382972
33.356575 33.330159 33.303781 33.277438 33.251182 33.225009 33.198970 33.173056
33.147316 33.121740 33.096373 33.071202 33.046270 33.021561 32.997113 32.972910
32.948986 32.925321 32.901947 32.878841 32.856031 32.833493 32.811250 32.789278
32.767595 32.746176 32.725034 32.704145 32.683518 32.663126 32.642977 32.623042
32.603326 32.583801 32.564466 32.545296 32.526286 32.507410 32.488661 32.470015
32.451461 32.432976 32.414547 32.396153 32.377778
32.755556 32.794043 32.832566 32.871156 32.909854 32.948686 32.987696 33.026903
33.066354 33.106065 33.146083 33.186416 33.227115 33.268181 33.309664 33.351558
33.393915 33.436720 33.480025 33.523808 33.568118 33.612926 33.658281 33.704142
33.750558 33.797482 33.844956 33.892926 33.941432 33.990412 34.039901 34.089829
34.140228 34.191019 34.242231 34.293778 34.345682 34.397852 34.450307 34.502948
34.555789 34.608726 34.661769 34.714810 34.767855 34.820790 34.873621 34.926230
34.978618 35.030667 35.082376 35.133627 35.184416 35.234625 35.284251 35.333177
35.381398 35.428801 35.475382 35.521032 35.565746 35.609421 35.652054 35.693546
35.733896 35.773012 35.810893 35.847456 35.882702 35.916553 35.949012 35.980010
36.009552 36.037574 36.064083 36.089025 36.112405 36.134177 36.154347 36.172876
36.189770 36.204998 36.218564 36.230443 36.240641 36.249139 36.255939 36.261031
36.264416 36.266089 36.266049 36.264297 36.260833 36.255662 36.248783 36.240207
36.229930 36.217973 36.204330 36.189026 36.172055 36.153451 36.133207 36.111362
36.087910 36.062898 36.036320 36.008230 35.978624 35.947563 35.915044 35.881136
35.845836 35.809223 35.771295 35.732137 35.691750 35.650226 35.607567 35.563871
35.519143 35.473486 35.426906 35.379512 35.331309 35.282412 35.232824 35.182664
35.131936 35.080759 35.029136 34.977188 34.924915 34.872438 34.819755 34.766985
34.714123 34.661286 34.608465 34.555773 34.503198 34.450847 34.398705 34.346873
34.295332 34.244177 34.193384 34.143041 34.093119 34.043700 33.994751 33.946344
33.898444 33.851115 33.804316 33.758105 33.712438 33.667363 33.622834 33.578890
33.535483 33.492645 33.450325 33.408546 33.367257 33.326473 33.286142 33.246272
33.206810 33.167758 33.129062 33.090718 33.052673 33.014916 32.977397 32.940098
32.902971 32.865992 32.829119 32.792320 32.755556
33.133333 33.191099 33.248915 33.306839 33.364915 33.423205 33.481745 33.540603
33.599804 33.659421 33.719471 33.780027 33.841096 33.902755 33.965000 34.027908
34.091464 34.155744 34.220721 34.286473 34.352959 34.420255 34.488308 34.557190
34.626837 34.697317 34.768553 34.840609 34.913396 34.986971 35.061235 35.136238
35.211869 35.288173 35.365026 35.442467 35.520362 35.598743 35.677466 35.756556
35.835860 35.915398 35.995007 36.074703 36.154316 36.233855 36.313148 36.392197
36.470826 36.549035 36.626645 36.703654 36.779883 36.855326 36.929809 37.003322
37.075695 37.146919 37.216829 37.285417 37.352523 37.418142 37.482122 37.544458
37.605009 37.663773 37.720618 37.775543 37.828430 37.879279 37.927983 37.974544
38.018867 38.060957 38.100728 38.138188 38.173263 38.205962 38.236220 38.264047
38.289389 38.312257 38.332606 38.350445 38.365742 38.378502 38.388703 38.396349
38.401427 38.403938 38.403879 38.401249 38.396053 38.388288 38.377969 38.365091
38.349677 38.331721 38.311256 38.288274 38.262817 38.234878 38.204508 38.171701
38.136518 38.098952 38.059078 38.016887 37.972468 37.925812 37.877019 37.826084
37.773117 37.718116 37.661202 37.602375 37.541768 37.479383 37.415364 37.349714
37.282587 37.213989 37.144081 37.072871 37.000525 36.927054 36.852629 36.777260
36.701122 36.624223 36.546743 36.468685 36.390230 36.311377 36.232307 36.153016
36.073678 35.994287 35.915012 35.835841 35.756936 35.678280 35.600028 35.522154
35.444806 35.367951 35.291727 35.216095 35.141181 35.066940 34.993488 34.920771
34.848894 34.777799 34.707578 34.638166 34.569643 34.501941 34.435127 34.369128
34.303999 34.239663 34.176164 34.113424 34.051472 33.990229 33.929714 33.869848
33.810636 33.752001 33.693938 33.636369 33.579281 33.522598 33.466297 33.410305
33.354589 33.299083 33.243744 33.188511 33.133333
33.511111 33.588194 33.665349 33.742639 33.820145 33.897921 33.976052 34.054581
34.133601 34.213141 34.293298 34.374089 34.455614 34.537876 34.620976 34.704903
34.789759 34.875517 34.962279 35.050001 35.138783 35.228567 35.319447 35.411350
35.504366 35.598403 35.693548 35.789691 35.886913 35.985087 36.084288 36.184372
36.285404 36.387228 36.489898 36.593244 36.697312 36.801916 36.907095 37.012649
37.118609 37.224764 37.331136 37.437505 37.543885 37.650048 37.756001 37.861511
37.966579 38.070969 38.174677 38.277464 38.379325 38.480023 38.579547 38.677667
38.774371 38.869433 38.962843 39.054382 39.144042 39.231614 39.317092 39.400279
39.481171 39.559586 39.635522 39.708811 39.779454 39.847299 39.912349 39.974469
40.033664 40.089814 40.142927 40.192896 40.239735 40.283349 40.323752 40.360867
40.394705 40.425203 40.452373 40.476164 40.496586 40.513603 40.527222 40.537419
40.544198 40.547547 40.547468 40.543961 40.537024 40.526670 40.512894 40.495720
40.475141 40.451195 40.423871 40.393220 40.359231 40.321966 40.281415 40.237655
40.190673 40.140563 40.087313 40.031030 39.971705 39.909461 39.844291 39.776332
39.705582 39.632193 39.556164 39.477666 39.396699 39.313447 39.227916 39.140303
39.050616 38.959064 38.865656 38.770613 38.673946 38.575883 38.476434 38.375836
38.274097 38.171456 38.067922 37.963734 37.858897 37.753650 37.647992 37.542160
37.436148 37.330185 37.224259 37.118594 37.013166 36.908191 36.803639 36.699713
36.596373 36.493811 36.391978 36.291052 36.190975 36.091909 35.993789 35.896762
35.800753 35.705893 35.612101 35.519490 35.427972 35.337646 35.248416 35.160363
35.073390 34.987559 34.902768 34.819066 34.736347 34.654644 34.573850 34.493982
34.414934 34.336708 34.259199 34.182394 34.106193 34.030567 33.955421 33.880715
33.806356 33.732295 33.658443 33.584742 33.511111
33.888889 33.985345 34.081886 34.178608 34.275584 34.372919 34.470674 34.568960
34.667823 34.767381 34.867665 34.968798 35.070793 35.173775 35.277740 35.382816
35.488979 35.596357 35.704905 35.814752 35.925832 36.038268 36.151977 36.267077
36.383463 36.501245 36.620300 36.740731 36.862391 36.985375 37.109517 37.234903
37.361345 37.488920 37.617419 37.746909 37.877165 38.008239 38.139892 38.272164
38.404801 38.537833 38.670991 38.804297 38.937469 39.070521 39.203163 39.335399
39.466935 39.597768 39.727602 39.856427 39.983948 40.110152 40.234746 40.357715
40.478774 40.597907 40.714836 40.829549 40.941778 41.051512 41.158499 41.262731
41.363972 41.462216 41.557245 41.649059 41.737457 41.822443 41.903835 41.981642
42.055701 42.126023 42.192466 42.255044 42.313632 42.368246 42.418780 42.465251
42.507571 42.545756 42.579734 42.609519 42.635058 42.656362 42.673392 42.686157
42.694634 42.698826 42.698728 42.694338 42.685664 42.672703 42.655477 42.633978
42.608244 42.578265 42.544095 42.505720 42.463212 42.416554 42.365834 42.311039
42.252272 42.189519 42.122905 42.052416 41.978196 41.900234 41.818692 41.733564
41.645033 41.553094 41.457949 41.359600 41.258267 41.153955 41.046902 40.937117
40.824853 40.710124 40.593198 40.474089 40.353077 40.230177 40.105679 39.979599
39.852231 39.723590 39.593973 39.463392 39.332146 39.200238 39.067966 38.935328
38.802616 38.669818 38.537219 38.404798 38.272828 38.141279 38.010411 37.880183
37.750840 37.622328 37.494878 37.368424 37.243179 37.119065 36.996276 36.874724
36.754584 36.635756 36.518395 36.402394 36.287885 36.174755 36.063113 35.952839
35.844024 35.736541 35.630461 35.525653 35.422166 35.319870 35.218792 35.118802
35.019909 34.921983 34.825014 34.728875 34.633541 34.538886 34.444869 34.351372
34.258337 34.165653 34.073249 33.981022 33.888889
34.266667 34.382560 34.498562 34.614769 34.731302 34.848241 34.965718 35.083796
35.202615 35.322220 35.442757 35.564252 35.686856 35.810573 35.935557 36.061792
36.189430 36.318433 36.448952 36.580925 36.714501 36.849592 36.986342 37.124640
37.264623 37.406153 37.549360 37.694081 37.840435 37.988234 38.137588 38.288284
38.440418 38.593755 38.748378 38.904028 39.060775 39.218341 39.376781 39.535797
39.695431 39.855369 40.015640 40.175914 40.336209 40.496184 40.655846 40.814844
40.973178 41.130493 41.286778 41.441677 41.595177 41.746922 41.896895 42.044747
42.190459 42.333691 42.474425 42.612334 42.747401 42.879316 43.008063 43.133352
43.255173 43.373253 43.487587 43.597926 43.704271 43.806392 43.904298 43.997782
44.086856 44.171338 44.251243 44.326411 44.396862 44.462458 44.523219 44.579029
44.629908 44.675762 44.716609 44.752374 44.783074 44.808654 44.829125 44.844452
44.854641 44.859676 44.859558 44.854288 44.843863 44.828301 44.807595 44.781782
44.750849 44.714852 44.673776 44.627694 44.576588 44.520555 44.459573 44.393760
44.323095 44.247717 44.167607 44.082926 43.993659 43.899989 43.801905 43.699614
43.593109 43.482620 43.368147 43.249943 43.128011 43.002627 42.873800 42.741825
42.606717 42.468789 42.328058 42.184855 42.039199 41.891432 41.741574 41.589978
41.436661 41.281983 41.125958 40.968948 40.810961 40.652357 40.493139 40.333662
40.173918 40.014255 39.854654 39.695451 39.536616 39.378471 39.220972 39.064424
38.908770 38.754297 38.600933 38.448944 38.298245 38.149078 38.001347 37.855271
37.710739 37.567946 37.426771 37.287383 37.149652 37.013721 36.879451 36.746960
36.616102 36.486970 36.359413 36.233499 36.109073 35.986180 35.864662 35.744542
35.625661 35.508021 35.391464 35.275971 35.161389 35.047676 34.934687 34.822362
34.710562 34.599210 34.488176 34.377368 34.266667
34.644444 34.779857 34.915391 35.051179 35.187327 35.323981 35.461227 35.599224
35.738035 35.877828 36.018646 36.160662 36.303895 36.448522 36.594539 36.742125
36.891247 37.042085 37.194579 37.348907 37.504981 37.662972 37.822765 37.984525
38.148106 38.313664 38.481025 38.650334 38.821387 38.994316 39.168890 39.345226
39.523065 39.702510 39.883272 40.065441 40.248703 40.433130 40.618385 40.804525
40.991190 41.178422 41.365843 41.553479 41.740938 41.928233 42.114959 42.301117
42.486295 42.670483 42.853266 43.034627 43.214150 43.391815 43.567209 43.740308
43.910711 44.078392 44.242963 44.404400 44.562331 44.716737 44.867264 45.013899
45.156312 45.294492 45.428137 45.557243 45.681531 45.801006 45.915415 46.024769
46.128843 46.227653 46.321001 46.408907 46.491200 46.567901 46.638866 46.704117
46.763534 46.817139 46.864836 46.906645 46.942491 46.972390 46.996292 47.014206
47.026103 47.031988 47.031851 47.025692 47.013521 46.995334 46.971160 46.940989
46.904872 46.862795 46.814831 46.760960 46.701280 46.635769 46.564548 46.487593
46.405052 46.316903 46.223317 46.124275 46.019976 45.910405 45.795789 45.676117
45.551642 45.422362 45.288558 45.150231 45.007690 44.860944 44.710325 44.555849
44.397871 44.236411 44.071846 43.904198 43.733861 43.560860 43.385602 43.208111
43.028802 42.847699 42.665221 42.481386 42.296615 42.110918 41.924711 41.737996
41.551182 41.364257 41.177620 40.991245 40.805515 40.620390 40.436235 40.252995
40.071012 39.890215 39.710924 39.533050 39.356890 39.182337 39.009661 38.838741
38.669819 38.502758 38.337772 38.174714 38.013765 37.854767 37.697873 37.542916
37.390019 37.239007 37.089975 36.942742 36.797374 36.653688 36.511724 36.371294
36.232414 36.094898 35.958733 35.823740 35.689882 35.556982 35.424983 35.293717
35.163103 35.032984 34.903261 34.773786 34.644444
35.022222 35.177243 35.332411 35.487854 35.643736 35.800165 35.957318 36.115280
36.274239 36.434257 36.595530 36.758093 36.922149 37.087706 37.254970 37.423918
37.594758 37.767438 37.942162 38.118848 38.297694 38.478587 38.661718 38.846940
39.034435 39.224023 39.415875 39.609776 39.805884 40.003950 40.204119 40.406108
40.610044 40.815614 41.022926 41.231638 41.441838 41.653157 41.865665 42.078964
42.293109 42.507677 42.722704 42.937750 43.152835 43.367502 43.581754 43.795126
44.007608 44.218727 44.428463 44.636341 44.842334 45.045970 45.247219 45.445614
45.641125 45.833298 46.022103 46.207104 46.388274 46.565198 46.737855 46.905854
47.069181 47.227473 47.380722 47.528596 47.671094 47.807914 47.939065 48.064275
48.183559 48.296677 48.403650 48.504269 48.598559 48.686340 48.767638 48.842305
48.910366 48.971699 49.026329 49.074159 49.115212 49.149416 49.176788 49.197281
49.210905 49.217637 49.217481 49.210437 49.196502 49.175698 49.148016 49.113503
49.072142 49.024006 48.969072 48.907437 48.839077 48.764114 48.682523 48.594455
48.499882 48.398986 48.291741 48.178360 48.058820 47.933364 47.801977 47.664932
47.522221 47.374150 47.220718 47.062261 46.898787 46.730661 46.557900 46.380896
46.199673 46.014647 45.825848 45.633715 45.438279 45.239998 45.038904 44.835467
44.629718 44.422137 44.212749 44.002036 43.790018 43.577174 43.363515 43.149513
42.935165 42.720934 42.506801 42.293214 42.080138 41.868001 41.656750 41.446791
41.238051 41.030911 40.825280 40.621510 40.419491 40.219545 40.021545 39.825780
39.632106 39.440781 39.251644 39.064919 38.880431 38.698373 38.518556 38.341138
38.165923 37.993035 37.822269 37.653718 37.487171 37.322689 37.160060 36.999312
36.840233 36.682824 36.526873 36.372354 36.219060 36.066936 35.915786 35.765530
35.615979 35.467031 35.318511 35.170295 35.022222
35.400000 35.574736 35.749629 35.924854 36.100545 36.276895 36.454014 36.632107
36.811261 36.991690 37.173453 37.356773 37.541677 37.728394 37.916920 38.107485
38.300052 38.494852 38.691810 38.891154 39.092775 39.296893 39.503363 39.712395
39.923805 40.137794 40.354139 40.573026 40.794195 41.017815 41.243590 41.471669
41.701719 41.933872 42.167758 42.403488 42.640660 42.879362 43.119161 43.360127
43.601796 43.844217 44.086904 44.329885 44.572653 44.815220 45.057063 45.298176
45.538029 45.776601 46.013357 46.248267 46.480795 46.710906 46.938069 47.162247
47.382920 47.600050 47.813136 48.022142 48.226588 48.426445 48.621258 48.811006
48.995265 49.174019 49.346879 49.513840 49.674544 49.828997 49.976876 50.118195
50.252668 50.380316 50.500889 50.614412 50.720669 50.819690 50.911292 50.995506
51.072182 51.141348 51.202885 51.256819 51.303057 51.341623 51.372450 51.395555
51.410898 51.418489 51.418315 51.410375 51.394683 51.371230 51.340055 51.301144
51.254561 51.200284 51.138407 51.068903 50.991892 50.907346 50.815417 50.716073
50.609500 50.495666 50.374790 50.246847 50.112087 49.970492 49.822348 49.667644
49.506702 49.339519 49.166455 48.987515 48.803093 48.613203 48.418274 48.218328
48.013822 47.804789 47.591711 47.374625 47.154038 46.929988 46.703000 46.473113
46.240863 46.006285 45.769923 45.531806 45.292478 45.051957 44.810784 44.568965
44.327027 44.084963 43.843286 43.601968 43.361503 43.121845 42.883463 42.646289
42.410766 42.176803 41.944813 41.714685 41.486796 41.261015 41.037686 40.816655
40.598231 40.382241 40.168957 39.958189 39.750171 39.544698 39.341966 39.141759
38.944233 38.749162 38.556668 38.366516 38.178790 37.993253 37.809952 37.628650
37.449359 37.271842 37.096082 36.921844 36.749080 36.577562 36.407213 36.237817
36.069267 35.901361 35.733967 35.566898 35.400000
35.777778 35.972340 36.167088 36.362184 36.557836 36.754180 36.951438 37.149722
37.349266 37.550152 37.752625 37.956733 38.162730 38.370630 38.580688 38.792884
39.007475 39.224400 39.443915 39.665920 39.890665 40.118009 40.348192 40.581034
40.816762 41.055152 41.296419 41.540297 41.786981 42.036165 42.288024 42.542209
42.798876 43.057635 43.318618 43.581399 43.846084 44.112210 44.379862 44.648543
44.918312 45.188644 45.459576 45.730556 46.001601 46.272139 46.542166 46.811097
47.078912 47.345016 47.609376 47.871395 48.131031 48.387690 48.641326 48.891353
49.137724 49.379871 49.617748 49.850808 50.079012 50.301839 50.519257 50.730780
50.936382 51.135613 51.328461 51.514510 51.693759 51.865833 52.030743 52.188152
52.338079 52.480230 52.614630 52.741024 52.859444 52.969670 53.071739 53.165466
53.250888 53.327855 53.396402 53.456411 53.507910 53.550816 53.585148 53.610852
53.627940 53.636386 53.636193 53.627362 53.609888 53.583800 53.549084 53.505796
53.453916 53.393528 53.324605 53.247264 53.161472 53.067379 52.964948 52.854366
52.735596 52.608859 52.474122 52.331645 52.181401 52.023687 51.858485 51.686132
51.506620 51.320326 51.127253 50.927817 50.722032 50.510355 50.292808 50.069883
49.841614 49.608525 49.370657 49.128561 48.882285 48.632401 48.378960 48.122552
47.863223 47.601576 47.337652 47.072057 46.804823 46.536554 46.267270 45.997565
45.727443 45.457484 45.187673 44.918571 44.650139 44.382915 44.116837 43.852414
43.589559 43.328747 43.069870 42.813366 42.559101 42.307476 42.058333 41.812034
41.568400 41.327750 41.089885 40.855082 40.623124 40.394247 40.168218 39.945230
39.725038 39.507793 39.293241 39.081492 38.872285 38.665690 38.461442 38.259574
38.059821 37.862178 37.666381 37.472394 37.279957 37.089000 36.899275 36.710678
36.522974 36.336032 36.149631 35.963614 35.777778
36.155556 36.370074 36.584786 36.799909 37.015610 37.232127 37.449596 37.668273
37.888264 38.109834 38.333058 38.558211 38.785329 39.014694 39.246303 39.480442
39.717066 39.956458 40.198534 40.443571 40.691439 40.942408 41.196304 41.453385
41.713430 41.976681 42.242872 42.512228 42.784435 43.059697 43.337654 43.618488
43.901794 44.187727 44.475840 44.766262 45.058502 45.352665 45.648221 45.945247
46.243178 46.542065 46.841313 47.140947 47.440347 47.739515 48.037812 48.335220
48.631086 48.925377 49.217431 49.507204 49.794035 50.077871 50.358061 50.634546
50.906689 51.174434 51.437166 51.694831 51.946842 52.193156 52.433216 52.666990
52.893960 53.114104 53.326947 53.532480 53.730269 53.920319 54.102241 54.276052
54.441406 54.598330 54.746524 54.886021 55.016564 55.138191 55.250685 55.354085
55.448214 55.533110 55.608631 55.674812 55.731545 55.778859 55.816677 55.845019
55.863842 55.873156 55.872945 55.863210 55.843966 55.815203 55.776965 55.729234
55.672085 55.605489 55.529557 55.444252 55.349719 55.245917 55.133029 55.011012
54.880086 54.740213 54.591652 54.434370 54.268670 54.094525 53.912283 53.721928
53.523852 53.318051 53.104961 52.884592 52.657424 52.423480 52.183280 51.936860
51.684778 51.427081 51.164361 50.896672 50.624635 50.348309 50.068335 49.784774
49.498283 49.208919 48.917347 48.623615 48.328392 48.031710 47.734234 47.435981
47.137599 46.839088 46.541077 46.243542 45.947086 45.651662 45.357842 45.065552
44.775330 44.487074 44.201284 43.917831 43.637174 43.359156 43.084195 42.812106
42.543263 42.277459 42.015019 41.755716 41.499829 41.247111 40.997797 40.751622
40.508775 40.268979 40.032377 39.798683 39.567996 39.340025 39.114825 38.892102
38.671870 38.453838 38.237979 38.024006 37.811857 37.601252 37.392093 37.184113
36.977182 36.771045 36.565544 36.360443 36.155556
36.533333 36.767938 37.002769 37.238025 37.473955 37.710730 37.948617 38.187754
38.428425 38.670731 38.914970 39.161203 39.409735 39.660589 39.914074 40.170168
40.429181 40.691047 40.956071 41.224139 41.495551 41.770144 42.048205 42.329523
42.614369 42.902481 43.194114 43.488953 43.787231 44.088583 44.393218 44.700721
45.011274 45.324412 45.640288 45.958393 46.278849 46.601102 46.925244 47.250680
47.577473 47.904991 48.233268 48.561642 48.890120 49.218013 49.545306 49.871291
50.195933 50.518511 50.838976 51.156604 51.471333 51.782444 52.089869 52.392901
52.691472 52.984895 53.273103 53.555440 53.831845 54.101696 54.364944 54.621004
54.869842 55.110918 55.344212 55.569230 55.785968 55.993980 56.193278 56.383463
56.564561 56.736223 56.898483 57.051041 57.193938 57.326919 57.450029 57.563057
57.666047 57.758829 57.841445 57.913762 57.975816 58.027510 58.068871 58.099836
58.120422 58.130598 58.130369 58.119737 58.098694 58.067274 58.025458 57.973312
57.910807 57.838041 57.754979 57.661754 57.558325 57.444864 57.321324 57.187921
57.044608 56.891643 56.728985 56.556936 56.375462 56.184915 55.985270 55.776928
55.559878 55.334570 55.101007 54.859689 54.610635 54.354391 54.090992 53.821027
53.544545 53.262176 52.973980 52.680621 52.382166 52.079309 51.772119 51.461310
51.146953 50.829773 50.509833 50.187867 49.863925 49.538737 49.212338 48.885446
48.558078 48.230934 47.904004 47.577966 47.252782 46.929098 46.606850 46.286646
45.968392 45.652656 45.339313 45.028888 44.721225 44.416803 44.115437 43.817556
43.522949 43.231995 42.944456 42.660663 42.380355 42.103810 41.830750 41.561402
41.295472 41.033136 40.774089 40.518458 40.265928 40.016581 39.770096 39.526509
39.285499 39.047057 38.810865 38.576872 38.344769 38.114465 37.885661 37.658228
37.431883 37.206463 36.981702 36.757407 36.533333
36.911111 37.165954 37.421029 37.676597 37.932859 38.190099 38.448485 38.708319
38.969732 39.233042 39.498339 39.765952 40.035930 40.308605 40.583983 40.862400
41.143810 41.428550 41.716523 42.008060 42.303013 42.601701 42.903923 43.209985
43.519631 43.833146 44.150222 44.471121 44.795479 45.123533 45.454863 45.789679
46.127506 46.468524 46.812205 47.158697 47.507422 47.858494 48.211289 48.565888
48.921623 49.278542 49.635942 49.993839 50.351497 50.708906 51.065306 51.420661
51.774193 52.125848 52.474840 52.821098 53.163839 53.502980 53.837748 54.168059
54.493154 54.812952 55.126722 55.434389 55.735256 56.029260 56.315744 56.594660
56.865398 57.127924 57.381681 57.626652 57.862332 58.088723 58.305373 58.512300
58.709105 58.895822 59.072102 59.237990 59.393190 59.537751 59.671425 59.794263
59.906064 60.006878 60.096543 60.175106 60.242445 60.298595 60.343474 60.377107
60.399443 60.410496 60.410251 60.398706 60.375879 60.341757 60.296390 60.239752
60.171929 60.092883 60.002738 59.901448 59.789175 59.665869 59.531734 59.386719
59.231072 59.064746 58.888037 58.700903 58.503694 58.296377 58.079354 57.852607
57.616592 57.371307 57.117263 56.854475 56.583507 56.304393 56.017747 55.723619
55.422672 55.114970 54.801216 54.481487 54.156520 53.826399 53.491888 53.153073
52.810738 52.464964 52.116545 51.765552 51.412781 51.058288 50.702861 50.346536
49.990085 49.633518 49.277584 48.922266 48.568280 48.215579 47.864842 47.515988
47.169656 46.825730 46.484802 46.146723 45.812036 45.480558 45.152779 44.828487
44.508118 44.191429 43.878801 43.569967 43.265251 42.964364 42.667575 42.374574
42.085576 41.800256 41.518776 41.240798 40.966432 40.695334 40.427563 40.162770
39.900967 39.641807 39.385254 39.130966 38.878865 38.628618 38.380104 38.133006
37.887163 37.642275 37.398148 37.154502 36.911111
37.288889 37.564116 37.839611 38.115611 38.392410 38.670212 38.949333 39.229938
39.512362 39.796730 40.083389 40.372420 40.664180 40.958701 41.256346 41.557096
41.861315 42.168931 42.480303 42.795305 43.114286 43.437063 43.763972 44.094773
44.429782 44.768699 45.111820 45.458784 45.809860 46.164629 46.523330 46.885484
47.251297 47.620233 47.992463 48.367394 48.745162 49.125122 49.507371 49.891214
50.276715 50.663133 51.050496 51.438027 51.825720 52.212766 52.599131 52.983984
53.367264 53.748128 54.126495 54.501516 54.873099 55.240399 55.603316 55.961022
56.313416 56.659693 56.999760 57.332845 57.658864 57.977089 58.287450 58.589267
58.882491 59.166492 59.441242 59.706170 59.961267 60.206020 60.440441 60.664075
60.876952 61.078676 61.269289 61.448452 61.616216 61.772297 61.916750 62.049340
62.170125 62.278915 62.375764 62.460526 62.533246 62.593818 62.642278 62.678556
62.702674 62.714598 62.714336 62.701887 62.677245 62.640445 62.591462 62.530370
62.457131 62.371854 62.274492 62.165194 62.043904 61.910815 61.765869 61.609303
61.441060 61.261429 61.070358 60.868188 60.654879 60.430828 60.196008 59.950875
59.695419 59.430157 59.155098 58.870818 58.577348 58.275320 57.964785 57.646430
57.320325 56.987205 56.647156 56.300955 55.948699 55.591200 55.228559 54.861615
54.490467 54.115971 53.738220 53.358073 52.975612 52.591691 52.206372 51.820498
51.434104 51.048011 50.662226 50.277537 49.893919 49.512125 49.132092 48.754529
48.379338 48.007178 47.637913 47.272152 46.909721 46.551173 46.196298 45.845592
45.498812 45.156395 44.818068 44.484207 44.154512 43.829300 43.508247 43.191612
42.879051 42.570765 42.266394 41.966081 41.669459 41.376614 41.087173 40.801168
40.518226 40.238328 39.961102 39.686483 39.414107 39.143861 38.875395 38.608554
38.343002 38.078547 37.814872 37.551750 37.288889
37.666667 37.962447 38.258502 38.555134 38.852583 39.151179 39.451123 39.752766
40.056268 40.361996 40.670064 40.980852 41.294424 41.611168 41.931095 42.254597
42.581629 42.912579 43.247347 43.586312 43.929313 44.276719 44.628307 44.984427
45.344793 45.709734 46.078900 46.452592 46.830396 47.212584 47.598676 47.988909
48.382743 48.780375 49.181204 49.585389 49.992267 50.401959 50.813747 51.227709
51.643076 52.059890 52.477333 52.895411 53.313268 53.730874 54.147346 54.562623
54.975800 55.386792 55.794685 56.199375 56.599948 56.996289 57.387496 57.773450
58.153269 58.526840 58.893313 59.252583 59.603843 59.947004 60.281308 60.606685
60.922434 61.228509 61.524268 61.809689 62.084194 62.347785 62.599947 62.840704
63.069607 63.286695 63.491581 63.684320 63.864584 64.032434 64.187598 64.330143
64.459846 64.576772 64.680746 64.771826 64.849882 64.914959 64.966967 65.005939
65.031822 65.044633 65.044355 65.030987 65.004547 64.965019 64.912457 64.846827
64.768222 64.676593 64.572075 64.454608 64.324370 64.181294 64.025606 63.857239
63.676468 63.483231 63.277858 63.060296 62.830934 62.589734 62.337147 62.073152
61.798266 61.512489 61.216402 60.910031 60.594020 60.268418 59.933932 59.590632
59.239284 58.879976 58.513525 58.140037 57.760368 57.374635 56.983728 56.587767
56.187664 55.783535 55.376306 54.966081 54.553785 54.139507 53.724160 53.307809
52.891348 52.474810 52.059062 51.644102 51.230758 50.818991 50.409585 50.002460
49.598351 49.197136 48.799495 48.405264 48.015065 47.628696 47.246715 46.868884
46.495697 46.126880 45.762865 45.403346 45.048690 44.698564 44.353270 44.012452
43.676350 43.344589 43.017346 42.694232 42.375365 42.060346 41.749237 41.441633
41.137540 40.836554 40.538629 40.243367 39.950669 39.660150 39.371663 39.084839
38.799487 38.515256 38.231917 37.949143 37.666667
38.044444 38.360939 38.677746 38.995141 39.313466 39.632960 39.953990 40.276750
40.601629 40.928774 41.258588 41.591170 41.926933 42.265920 42.608550 42.954809
43.305117 43.659398 44.018067 44.380987 44.748558 45.120582 45.497441 45.878871
46.265232 46.656192 47.052084 47.452507 47.857765 48.267386 48.681638 49.099981
49.522644 49.949020 50.379296 50.812799 51.249673 51.689182 52.131426 52.575611
53.021792 53.469122 53.917615 54.366379 54.815385 55.263705 55.711275 56.157139
56.601204 57.042494 57.480893 57.915421 58.345946 58.771493 59.191921 59.606275
60.014415 60.415414 60.809141 61.194709 61.572004 61.940188 62.299168 62.648165
62.987110 63.315290 63.632661 63.938579 64.233029 64.515435 64.785809 65.043645
65.288978 65.521370 65.740875 65.947118 66.140168 66.319711 66.485821 66.638244