# vtk DataFile Version 3.0
Steady-state temperature (Jacobi)
ASCII
DATASET STRUCTURED_POINTS
DIMENSIONS 181 181 1
ORIGIN 0.0 0.0 0.0
SPACING 0.05 0.05 1.0
POINT_DATA 32761
SCALARS Temperature float 1
LOOKUP_TABLE default
32.000000 32.000000 32.000000 32.000000 32.000000 32.000000 32.000000 32.000000
32.000000 32.000000 32.000000 32.000000 32.000000 32.000000 32.000000 32.000000
32.000000 32.000000 32.000000 32.000000 32.000000 32.000000 32.000000 32.000000
32.000000 32.000000 32.000000 32.000000 32.000000 32.000000 32.000000 32.000000
32.000000 32.000000 32.000000 32.000000 32.000000 32.000000 32.000000 32.000000
32.000000 32.000000 32.000000 32.000000 32.000000 32.000000 32.000000 32.000000
32.000000 32.000000 32.000000 32.000000 32.000000 32.000000 32.000000 32.000000
32.000000 32.000000 32.000000 32.000000 32.000000 32.000000 32.000000 32.000000
32.000000 32.000000 32.000000 32.000000 32.000000 32.000000 32.000000 32.000000
32.000000 32.000000 32.000000 32.000000 32.000000 32.000000 32.000000 32.000000
32.000000 32.000000 32.000000 32.000000 32.000000 32.000000 32.000000 32.000000
32.000000 32.000000 32.000000 32.000000 32.000000 32.000000 32.000000 32.000000
32.000000 32.000000 32.000000 32.000000 32.000000 32.000000 32.000000 32.000000
32.000000 32.000000 32.000000 32.000000 32.000000 32.000000 32.000000 32.000000
32.000000 32.000000 32.000000 32.000000 32.000000 32.000000 32.000000 32.000000
32.000000 32.000000 32.000000 32.000000 32.000000 32.000000 32.000000 32.000000
32.000000 32.000000 32.000000 32.000000 32.000000 32.000000 32.000000 32.000000
32.000000 32.000000 32.000000 32.000000 32.000000 32.000000 32.000000 32.000000
32.000000 32.000000 32.000000 32.000000 32.000000 32.000000 32.000000 32.000000
32.000000 32.000000 32.000000 32.000000 32.000000 32.000000 32.000000 32.000000
32.000000 32.000000 32.000000 32.000000 32.000000 32.000000 32.000000 32.000000
32.000000 32.000000 32.000000 32.000000 32.000000 32.000000 32.000000 32.000000
32.000000 32.000000 32.000000 32.000000 32.000000
32.377778 32.408119 32.438465 32.468820 32.499188 32.529574 32.559981 32.590413
32.620874 32.651368 32.681897 32.712465 32.743072 32.773723 32.804417 32.835157
32.865942 32.896774 32.927649 32.958569 32.989530 33.020531 33.051567 33.082636
33.113732 33.144850 33.175982 33.207124 33.238264 33.269397 33.300510 33.331596
33.362639 33.393631 33.424556 33.455402 33.486151 33.516792 33.547303 33.577672
33.607876 33.637902 33.667725 33.697331 33.726693 33.755797 33.784616 33.813132
33.841320 33.869163 33.896633 33.923712 33.950375 33.976603 34.002370 34.027659
34.052445 34.076711 34.100432 34.123592 34.146170 34.168149 34.189509 34.210236
34.230311 34.249721 34.268448 34.286483 34.303809 34.320418 34.336295 34.351432
34.365819 34.379448 34.392310 34.404400 34.415709 34.426234 34.435967 34.444907
34.453047 34.460385 34.466918 34.472643 34.477559 34.481663 34.484955 34.487434
34.489097 34.489946 34.489980 34.489200 34.487604 34.485195 34.481973 34.477939
34.473096 34.467444 34.460986 34.453725 34.445664 34.436807 34.427158 34.416720
34.405501 34.393504 34.380739 34.367210 34.352928 34.337899 34.322135 34.305644
34.288440 34.270533 34.251937 34.232665 34.212734 34.192157 34.170952 34.149135
34.126726 34.103740 34.080201 34.056125 34.031535 34.006450 33.980894 33.954885
33.928450 33.901606 33.874380 33.846791 33.818864 33.790618 33.762079 33.733264
33.704200 33.674903 33.645397 33.615699 33.585832 33.555811 33.525658 33.495386
33.465016 33.434560 33.404036 33.373455 33.342834 33.312182 33.281513 33.250835
33.220162 33.189498 33.158855 33.128237 33.097653 33.067106 33.036604 33.006148
32.975743 32.945390 32.915093 32.884850 32.854665 32.824534 32.794460 32.764439
32.734472 32.704554 32.674684 32.644858 32.615074 32.585327 32.555613 32.525929
32.496269 32.466628 32.437003 32.407388 32.377778
32.755556 32.816241 32.876936 32.937647 32.998386 33.059160 33.119977 33.180844
33.241770 33.302760 33.363822 33.424960 33.486181 33.547486 33.608881 33.670364
33.731942 33.793609 33.855368 33.917213 33.979145 34.041154 34.103237 34.165383
34.227586 34.289831 34.352110 34.414403 34.476699 34.538976 34.601220 34.663403
34.725509 34.787506 34.849375 34.911082 34.972602 35.033899 35.094945 35.155699
35.216133 35.276201 35.335874 35.395102 35.453854 35.512079 35.569744 35.626796
35.683200 35.738904 35.793870 35.848048 35.901400 35.953875 36.005435 36.056031
36.105628 36.154176 36.201641 36.247978 36.293155 36.337128 36.379868 36.421335
36.461502 36.500333 36.537805 36.573884 36.608550 36.641775 36.673542 36.703824
36.732607 36.759872 36.785604 36.809788 36.832413 36.853466 36.872938 36.890819
36.907103 36.921781 36.934850 36.946302 36.956136 36.964346 36.970931 36.975888
36.979216 36.980914 36.980982 36.979420 36.976229 36.971410 36.964965 36.956896
36.947207 36.935902 36.922983 36.908459 36.892334 36.874616 36.855312 36.834434
36.811988 36.787991 36.762452 36.735389 36.706814 36.676749 36.645208 36.612218
36.577796 36.541971 36.504765 36.466209 36.426329 36.385161 36.342732 36.299083
36.254243 36.208256 36.161154 36.112984 36.063781 36.013592 35.962455 35.910419
35.857522 35.803815 35.749337 35.694139 35.638258 35.581747 35.524642 35.466994
35.408839 35.350226 35.291190 35.231776 35.172018 35.111959 35.051629 34.991070
34.930308 34.869381 34.808313 34.747138 34.685877 34.624561 34.563205 34.501840
34.440476 34.379139 34.317839 34.256595 34.195414 34.134314 34.073298 34.012380
33.951560 33.890849 33.830245 33.769756 33.709377 33.649113 33.588959 33.528914
33.468974 33.409135 33.349391 33.289738 33.230165 33.170669 33.111239 33.051867
32.992545 32.933262 32.874010 32.814778 32.755556
33.133333 33.224367 33.315414 33.406489 33.497602 33.588770 33.680001 33.771310
33.862705 33.954200 34.045801 34.137520 34.229359 34.321330 34.413432 34.505674
34.598051 34.690571 34.783224 34.876013 34.968927 35.061964 35.155108 35.248355
35.341681 35.435080 35.528522 35.621997 35.715469 35.808924 35.902320 35.995637
36.088830 36.181873 36.274714 36.367324 36.459645 36.551643 36.643256 36.734443
36.825140 36.915302 37.004859 37.093763 37.181941 37.269341 37.355889 37.441531
37.526189 37.609808 37.692310 37.773640 37.853719 37.932492 38.009882 38.085835
38.160277 38.233155 38.304398 38.373957 38.441763 38.507771 38.571919 38.634163
38.694448 38.752735 38.808971 38.863125 38.915150 38.965018 39.012689 39.058138
39.101331 39.142248 39.180862 39.217155 39.251104 39.282696 39.311913 39.338745
39.363178 39.385203 39.404810 39.421995 39.436748 39.449067 39.458946 39.466384
39.471377 39.473925 39.474027 39.471683 39.466895 39.459664 39.449994 39.437888
39.423351 39.406386 39.387005 39.365210 39.341016 39.314428 39.285464 39.254132
39.220453 39.184439 39.146116 39.105500 39.062619 39.017496 38.970164 38.920648
38.868990 38.815217 38.759378 38.701505 38.641651 38.579855 38.516174 38.450651
38.383349 38.314316 38.243619 38.171307 38.097455 38.022113 37.945357 37.867242
37.787845 37.707223 37.625453 37.542592 37.458719 37.373889 37.288180 37.201646
37.114363 37.026383 36.937779 36.848600 36.758916 36.668772 36.578234 36.487342
36.396158 36.304718 36.213078 36.121269 36.029343 35.937326 35.845263 35.753175
35.661102 35.569061 35.477086 35.385189 35.293397 35.201718 35.110176 35.018774
34.927529 34.836441 34.745522 34.654769 34.564190 34.473778 34.383536 34.293456
34.203538 34.113769 34.024146 33.934656 33.845292 33.756039 33.666889 33.577825
33.488837 33.399907 33.311024 33.222171 33.133333
33.511111 33.632500 33.753907 33.875350 33.996847 34.118413 34.240069 34.361826
34.483703 34.605709 34.727863 34.850170 34.972645 35.095291 35.218120 35.341130
35.464331 35.587715 35.711288 35.835037 35.958963 36.083047 36.207286 36.331654
36.456143 36.580719 36.705369 36.830053 36.954750 37.079412 37.204014 37.328500
37.452838 37.576964 37.700840 37.824395 37.947584 38.070329 38.192579 38.314250
38.435284 38.555591 38.675110 38.793744 38.911427 39.028059 39.143571 39.257860
39.370853 39.482445 39.592563 39.701102 39.807988 39.913116 40.016413 40.117778
40.217138 40.314398 40.409488 40.502316 40.592817 40.680904 40.766519 40.849581
40.930036 41.007813 41.082863 41.155121 41.224547 41.291083 41.354694 41.415330
41.472963 41.527551 41.579070 41.627485 41.672778 41.714921 41.753898 41.789689
41.822282 41.851660 41.877815 41.900735 41.920414 41.936844 41.950021 41.959941
41.966600 41.969998 41.970134 41.967008 41.960621 41.950978 41.938079 41.921932
41.902540 41.879914 41.854059 41.824989 41.792712 41.757248 41.718606 41.676811
41.631877 41.583835 41.532702 41.478516 41.421300 41.361097 41.297937 41.231871
41.162933 41.091183 41.016663 40.939438 40.859556 40.777092 40.692099 40.604659
40.514831 40.422703 40.328340 40.231837 40.133261 40.032711 39.930260 39.826009
39.720034 39.612437 39.503296 39.392714 39.280768 39.167561 39.053167 38.937690
38.821201 38.703798 38.585551 38.466554 38.346871 38.226592 38.105774 37.984503
37.862831 37.740835 37.618561 37.496080 37.373432 37.250679 37.127854 37.005014
36.882183 36.759412 36.636718 36.514143 36.391701 36.269424 36.147321 36.025418
35.903716 35.782236 35.660976 35.539948 35.419144 35.298575 35.178227 35.058103
34.938189 34.818483 34.698967 34.579635 34.460467 34.341454 34.222573 34.103813
33.985150 33.866570 33.748049 33.629570 33.511111
33.888889 34.040642 34.192417 34.344238 34.496126 34.648105 34.800192 34.952412
35.104778 35.257314 35.410029 35.562944 35.716066 35.869411 36.022980 36.176787
36.330827 36.485109 36.639620 36.794366 36.949326 37.104500 37.259859 37.415398
37.571078 37.726887 37.882779 38.038732 38.194692 38.350630 38.506482 38.662211
38.817743 38.973033 39.127998 39.282584 39.436700 39.590284 39.743235 39.895484
40.046924 40.197477 40.347029 40.495497 40.642760 40.788731 40.933284 41.076328
41.217733 41.357407 41.495219 41.631074 41.764842 41.896430 42.025708 42.152585
42.276936 42.398673 42.517677 42.633863 42.747120 42.857369 42.964507 43.068462
43.169138 43.266472 43.360379 43.450802 43.537665 43.620920 43.700502 43.776370
43.848468 43.916762 43.981206 44.041774 44.098426 44.151143 44.199892 44.244660
44.285422 44.322166 44.354874 44.383540 44.408148 44.428696 44.445174 44.457579
44.465906 44.470155 44.470324 44.466415 44.458428 44.446367 44.430237 44.410042
44.385793 44.357494 44.325160 44.288800 44.248434 44.204073 44.155743 44.103460
44.047257 43.987154 43.923193 43.855399 43.783822 43.708496 43.629477 43.546808
43.460555 43.370768 43.277523 43.180878 43.080919 42.977710 42.871350 42.761909
42.649493 42.534181 42.416087 42.295294 42.171924 42.046066 41.917845 41.787354
41.654723 41.520046 41.383455 41.245045 41.104947 40.963255 40.820101 40.675574
40.529803 40.382874 40.234911 40.085995 39.936245 39.785734 39.634574 39.482832
39.330613 39.177975 39.025013 38.871780 38.718360 38.564797 38.411167 38.257507
38.103880 37.950316 37.796871 37.643563 37.490441 37.337517 37.184828 37.032380
36.880201 36.728292 36.576672 36.425335 36.274294 36.123538 35.973072 35.822880
35.672962 35.523298 35.373881 35.224690 35.075712 34.926923 34.778307 34.629837
34.481495 34.333253 34.185089 34.036976 33.888889
34.266667 34.448794 34.630949 34.813158 34.995451 35.177850 35.360386 35.543078
35.725953 35.909028 36.092329 36.275865 36.459661 36.643719 36.828061 37.012682
37.197598 37.382798 37.568291 37.754058 37.940103 38.126396 38.312933 38.499676
38.686613 38.873694 39.060900 39.248169 39.435472 39.622738 39.809928 39.996958
40.183779 40.370298 40.556455 40.742144 40.927297 41.111797 41.295566 41.478479
41.660446 41.841335 42.021048 42.199443 42.376418 42.551823 42.725551 42.897447
43.067401 43.235254 43.400894 43.564163 43.724946 43.883088 44.038476 44.190957
44.340421 44.486722 44.629756 44.769382 44.905503 45.037989 45.166748 45.291662
45.412649 45.529599 45.642441 45.751078 45.855448 45.955465 46.051078 46.142212
46.228824 46.310853 46.388264 46.461005 46.529050 46.592356 46.650904 46.704660
46.753610 46.797729 46.837005 46.871421 46.900970 46.925638 46.945423 46.960315
46.970313 46.975413 46.975616 46.970922 46.961332 46.946852 46.927484 46.903238
46.874119 46.840142 46.801314 46.757657 46.709180 46.655911 46.597866 46.535079
46.467573 46.395389 46.318557 46.237129 46.151140 46.060656 45.965718 45.866404
45.762766 45.654891 45.542842 45.426718 45.306592 45.182574 45.054746 44.923230
44.788118 44.649541 44.507598 44.362430 44.214142 44.062884 43.908765 43.751939
43.592520 43.430665 43.266489 43.100152 42.931767 42.761493 42.589443 42.415771
42.240586 42.064039 41.886231 41.707309 41.527367 41.346542 41.164921 40.982633
40.799754 40.616404 40.432650 40.248600 40.064312 39.879882 39.695359 39.510827
39.326323 39.141922 38.957652 38.773573 38.589706 38.406101 38.222769 38.039748
37.857041 37.674679 37.492655 37.310991 37.129674 36.948715 36.768098 36.587825
36.407875 36.228242 36.048901 35.869842 35.691035 35.512463 35.334095 35.155909
34.977874 34.799964 34.622146 34.444391 34.266667
34.644444 34.856958 35.069504 35.282117 35.494825 35.707663 35.920658 36.133843
36.347239 36.560878 36.774777 36.988964 37.203449 37.418257 37.633389 37.848866
38.064681 38.280848 38.497350 38.714195 38.931355 39.148832 39.366584 39.584605
39.802842 40.021277 40.239847 40.458523 40.677228 40.895922 41.114516 41.332957
41.551142 41.769009 41.986439 42.203360 42.419640 42.635193 42.849878 43.063597
43.276198 43.487571 43.697555 43.906034 44.112834 44.317834 44.520854 44.721766
44.920386 45.116582 45.310169 45.501012 45.688928 45.873781 46.055392 46.233628
46.408314 46.579323 46.746488 46.909689 47.068768 47.223615 47.374081 47.520067
47.661439 47.798106 47.929950 48.056890 48.178822 48.295678 48.407366 48.513831
48.614995 48.710813 48.801218 48.886177 48.965636 49.039567 49.107929 49.170701
49.227850 49.279364 49.325215 49.365397 49.399890 49.428689 49.451782 49.469167
49.480836 49.486790 49.487026 49.481545 49.470351 49.453445 49.430837 49.402530
49.368537 49.328867 49.283538 49.232560 49.175962 49.113757 49.045982 48.972655
48.893824 48.809514 48.719782 48.624664 48.524228 48.418519 48.307618 48.191581
48.070503 47.944450 47.813532 47.677828 47.537459 47.392517 47.243137 47.089422
46.931520 46.769542 46.603649 46.433961 46.260648 46.083838 45.903707 45.720388
45.534064 45.344870 45.152991 44.958564 44.761774 44.562755 44.361692 44.158714
43.954002 43.747679 43.539919 43.330838 43.120602 42.909317 42.697139 42.484165
42.270540 42.056347 41.841721 41.626733 41.411505 41.196097 40.980615 40.765109
40.549672 40.334341 40.119197 39.904264 39.689610 39.475250 39.261238 39.047579
38.834314 38.621442 38.408990 38.196948 37.985334 37.774131 37.563346 37.352957
37.142961 36.933329 36.724054 36.515101 36.306455 36.098079 35.889951 35.682033
35.474297 35.266705 35.059224 34.851815 34.644444
35.022222 35.265136 35.508089 35.751116 35.994258 36.237547 36.481023 36.724713
36.968656 37.212874 37.457402 37.702256 37.947468 38.193044 38.439012 38.685367
38.932133 39.179294 39.426866 39.674822 39.923169 40.171867 40.420915 40.670259
40.919887 41.169731 41.419766 41.669912 41.920130 42.170325 42.420445 42.670379
42.920062 43.169368 43.418217 43.666469 43.914031 44.160748 44.406513 44.651157
44.894562 45.136547 45.376982 45.615675 45.852487 46.087217 46.319718 46.549784
46.777262 47.001940 47.223664 47.442221 47.657455 47.869156 48.077171 48.281293
48.481374 48.677215 48.868675 49.055566 49.237755 49.415067 49.587379 49.754531
49.916413 50.072880 50.223835 50.369149 50.508739 50.642492 50.770339 50.892183
51.007967 51.117610 51.221068 51.318273 51.409191 51.493768 51.571979 51.643781
51.709157 51.768075 51.820522 51.866474 51.905925 51.938858 51.965269 51.985148
51.998493 52.005301 52.005569 51.999301 51.986498 51.967165 51.941306 51.908934
51.870053 51.824683 51.772832 51.714526 51.649778 51.578623 51.501080 51.417193
51.326990 51.230526 51.127837 51.018993 50.904039 50.783058 50.656110 50.523292
50.384676 50.240376 50.090477 49.935110 49.774373 49.608414 49.437342 49.261323
49.080478 48.894985 48.704978 48.510647 48.312134 48.109641 47.903317 47.693369
47.479953 47.263281 47.043509 46.820852 46.595466 46.367563 46.137298 45.904879
45.670453 45.434223 45.196329 44.956966 44.716261 44.474400 44.231500 43.987732
43.743203 43.498069 43.252423 43.006409 42.760105 42.513638 42.267073 42.020524
41.774040 41.527718 41.281597 41.035758 40.790225 40.545065 40.300292 40.055958
39.812064 39.568650 39.325708 39.083263 38.841300 38.599831 38.358834 38.118311
37.878231 37.638587 37.399345 37.160488 36.921976 36.683787 36.445878 36.208218
35.970764 35.733481 35.496323 35.259251 35.022222
35.400000 35.673330 35.946703 36.220164 36.493752 36.767513 37.041483 37.315705
37.590209 37.865038 38.140212 38.415772 38.691730 38.968120 39.244946 39.522235
39.799979 40.078199 40.356873 40.636015 40.915588 41.195594 41.475985 41.756750
42.037825 42.319187 42.600754 42.882491 43.164299 43.446128 43.727863 44.009436
44.290715 44.571619 44.851997 45.131752 45.410717 45.688779 45.965755 46.241517
46.515868 46.788666 47.059700 47.328817 47.595795 47.860471 48.122613 48.382051
48.638548 48.891927 49.141949 49.388436 49.631148 49.869909 50.104482 50.334694
50.560317 50.781184 50.997077 51.207839 51.413264 51.613208 51.807481 51.995950
52.178444 52.354845 52.524999 52.688804 52.846126 52.996878 53.140943 53.278251
53.408703 53.532243 53.648788 53.758296 53.860701 53.955969 54.044048 54.124915
54.198530 54.264878 54.323928 54.375670 54.420084 54.457163 54.486894 54.509274
54.524295 54.531958 54.532260 54.525201 54.510787 54.489020 54.459908 54.423458
54.379684 54.328595 54.270213 54.204551 54.131641 54.051500 53.964170 53.869677
53.768076 53.659399 53.543717 53.421074 53.291555 53.155216 53.012161 52.862459
52.706233 52.543566 52.374600 52.199435 52.018229 51.831100 51.638223 51.439731
51.235817 51.026626 50.812368 50.593199 50.369340 50.140960 49.908288 49.671500
49.430833 49.186466 48.938640 48.687533 48.433390 48.176385 47.916758 47.654681
47.390388 47.124041 46.855867 46.586016 46.314705 46.042072 45.768320 45.493575
45.218022 44.941775 44.665002 44.387800 44.110322 43.832649 43.554916 43.277187
42.999581 42.722146 42.444983 42.168127 41.891660 41.615603 41.340023 41.064927
40.790365 40.516335 40.242871 39.969958 39.697620 39.425830 39.154600 38.883896
38.613716 38.344021 38.074799 37.806005 37.537617 37.269589 37.001888 36.734465
36.467284 36.200292 35.933447 35.666699 35.400000
35.777778 36.081539 36.385350 36.689258 36.993315 37.297562 37.602052 37.906820
38.211917 38.517372 38.823232 39.129515 39.436266 39.743493 40.051233 40.359483
40.668272 40.977583 41.287438 41.597805 41.908693 42.220056 42.531892 42.844136
43.156773 43.469721 43.782948 44.096357 44.409898 44.723454 45.036959 45.350277
45.663324 45.975944 46.288036 46.599425 46.909992 47.219542 47.527940 47.834974
48.140494 48.444269 48.746135 49.045849 49.343234 49.638034 49.930062 50.219055
50.504818 50.787083 51.065650 51.340250 51.610683 51.876681 52.138048 52.394522
52.645912 52.891967 53.132505 53.367288 53.596147 53.818861 54.035273 54.245182
54.448448 54.644889 54.834384 55.016771 55.191947 55.359771 55.520159 55.672991
55.818197 55.955680 56.085384 56.207230 56.321176 56.427159 56.525150 56.615099
56.696986 56.770774 56.836450 56.893988 56.943380 56.984609 57.017669 57.042552
57.059254 57.067772 57.068106 57.060257 57.044227 57.020023 56.987648 56.947116
56.898432 56.841617 56.776681 56.703653 56.622546 56.533402 56.436242 56.331118
56.218061 56.097138 55.968391 55.831903 55.687730 55.535975 55.376706 55.210048
55.036086 54.854964 54.666786 54.471718 54.269880 54.061460 53.846597 53.625496
53.398315 53.165277 52.926554 52.682385 52.432954 52.178515 51.919260 51.655453
51.387292 51.115047 50.838919 50.559180 50.276030 49.989741 49.700507 49.408595
49.114193 48.817558 48.518868 48.218368 47.916225 47.612669 47.307851 47.001987
46.695210 46.387720 46.079633 45.771127 45.462303 45.153320 44.844259 44.535261
44.226388 43.917761 43.609427 43.301487 42.993970 42.686959 42.380469 42.074564
41.769245 41.464560 41.160496 40.857085 40.554304 40.252169 39.950649 39.649745
39.349417 39.049656 38.750414 38.451671 38.153376 37.855496 37.557979 37.260783
36.963854 36.667144 36.370596 36.074160 35.777778
36.155556 36.489765 36.824030 37.158406 37.492944 37.827703 38.162727 38.498073
38.833778 39.169898 39.506459 39.843514 40.181079 40.519199 40.857878 41.197156
41.537021 41.877503 42.218577 42.560261 42.902513 43.245337 43.588676 43.932518
44.276786 44.621455 44.966425 45.311655 45.657024 46.002472 46.347859 46.693102
47.038042 47.382576 47.726521 48.069757 48.412078 48.753345 49.093332 49.431881
49.768747 50.103754 50.436641 50.767217 51.095205 51.420401 51.742519 52.061343
52.376579 52.688006 52.995325 53.298313 53.596670 53.890175 54.178533 54.461527
54.738872 55.010360 55.275719 55.534753 55.787207 56.032900 56.271597 56.503135
56.727301 56.943951 57.152895 57.354010 57.547131 57.732154 57.908937 58.077397
58.237415 58.388926 58.531832 58.666083 58.791603 58.908354 59.016277 59.115348
59.205520 59.286778 59.359088 59.422442 59.476817 59.522208 59.558600 59.585991
59.604375 59.613750 59.614116 59.605473 59.587826 59.561177 59.525537 59.480909
59.427311 59.364749 59.293250 59.212824 59.123509 59.025321 58.918309 58.802499
58.677956 58.544716 58.402861 58.252442 58.093559 57.926280 57.750726 57.566983
57.375196 57.175470 56.967973 56.752831 56.530236 56.300333 56.063339 55.819419
55.568810 55.311694 55.048331 54.778916 54.503726 54.222969 53.936933 53.645838
53.349979 53.049581 52.744945 52.436295 52.123934 51.808083 51.489040 51.167019
50.842312 50.515122 50.185730 49.854325 49.521173 49.186449 48.850401 48.513187
48.175036 47.836087 47.496549 47.156540 46.816247 46.475771 46.135275 45.794839
45.454606 45.114636 44.775050 44.435890 44.097256 43.759170 43.421714 43.084895
42.748772 42.413340 42.078639 41.744650 41.411397 41.078849 40.747015 40.415854
40.085361 39.755486 39.426211 39.097481 38.769266 38.441505 38.114161 37.787168
37.460481 37.134033 36.807772 36.481632 36.155556
36.533333 36.898008 37.262745 37.627603 37.992648 38.357931 38.723519 39.089457
39.455807 39.822607 40.189917 40.557762 40.926195 41.295232 41.664918 42.035253
42.406273 42.777963 43.150349 43.523396 43.897117 44.271460 44.646423 45.021933
45.397971 45.774443 46.151311 46.528458 46.905829 47.283281 47.660739 48.038038
48.415078 48.791670 49.167695 49.542939 49.917259 50.290419 50.662256 51.032510
51.400998 51.767441 52.131636 52.493288 52.852177 53.207993 53.560504 53.909388
54.254405 54.595225 54.931602 55.263207 55.589790 55.911025 56.226667 56.536396
56.839977 57.137101 57.427544 57.711016 57.987308 58.256151 58.517354 58.770671
59.015935 59.252923 59.481490 59.701443 59.912657 60.114967 60.308271 60.492430
60.667363 60.832954 60.989144 61.135840 61.272997 61.400542 61.518447 61.626655
61.725148 61.813885 61.892855 61.962030 62.021404 62.070959 62.110693 62.140594
62.160663 62.170896 62.171293 62.161856 62.142587 62.113492 62.074575 62.025848
61.967317 61.899004 61.820915 61.733083 61.635521 61.528272 61.411357 61.284836
61.148740 61.003146 60.848099 60.683695 60.509998 60.327125 60.135159 59.934244
59.724482 59.506042 59.279052 59.043706 58.800154 58.548619 58.289272 58.022362
57.748080 57.466700 57.178432 56.883569 56.582338 56.275049 55.961939 55.643332
55.319473 54.990694 54.657242 54.319452 53.977570 53.631929 53.282771 52.930420
52.575109 52.217151 51.856766 51.494254 51.129816 50.763736 50.396196 50.027458
49.657687 49.287121 48.915902 48.544247 48.172275 47.800179 47.428055 47.056071
46.684304 46.312896 45.941902 45.571442 45.201550 44.832323 44.463778 44.095989
43.728955 43.362731 42.997300 42.632697 42.268894 41.905905 41.543692 41.182253
40.821539 40.461534 40.102180 39.743450 39.385278 39.027627 38.670426 38.313627
37.957159 37.600965 37.244973 36.889119 36.533333
36.911111 37.306268 37.701492 38.096854 38.492418 38.888254 39.284419 39.680983
40.077993 40.475517 40.873592 41.272279 41.671604 42.071622 42.472342 42.873811
43.276022 43.679011 44.082752 44.487268 44.892515 45.298499 45.705154 46.112471
46.520360 46.928793 47.337656 47.746899 48.156383 48.566038 48.975698 49.385269
49.794558 50.203447 50.611718 51.019227 51.425730 51.831060 52.234947 52.637200
53.037527 53.435715 53.831449 54.224499 54.614532 55.001298 55.384453 55.763735
56.138786 56.509338 56.875030 57.235586 57.590647 57.939940 58.283110 58.619891
58.949938 59.272997 59.588741 59.896930 60.197258 60.489505 60.773391 61.048718
61.315232 61.572761 61.821081 62.060046 62.289461 62.509206 62.719116 62.919096
63.109008 63.288779 63.458300 63.617517 63.766344 63.904743 64.032649 64.150039
64.256864 64.353111 64.438746 64.513763 64.578138 64.631870 64.674945 64.707363
64.729117 64.740209 64.740637 64.730403 64.709511 64.677962 64.635767 64.582928
64.519463 64.445375 64.360691 64.265419 64.159598 64.043243 63.916406 63.779113
63.631433 63.473404 63.305118 63.126630 62.938053 62.739463 62.531000 62.312763
62.084918 61.847589 61.600975 61.345222 61.080560 60.807162 60.525286 60.235129
59.936978 59.631053 59.317665 58.997053 58.669550 58.335412 57.994985 57.648537
57.296427 56.938929 56.576408 56.209136 55.837481 55.461712 55.082190 54.699176
54.313020 53.923971 53.532365 53.138434 52.742496 52.344763 51.945531 51.544991
51.143417 50.740974 50.337911 49.934370 49.530572 49.126636 48.722756 48.319026
47.915612 47.512587 47.110090 46.708169 46.306941 45.906431 45.506732 45.107849
44.709851 44.312728 43.916525 43.521218 43.126830 42.733324 42.340706 41.948924
41.557970 41.167782 40.778336 40.389562 40.001424 39.613847 39.226782 38.840150
38.453893 38.067932 37.682200 37.296617 36.911111
37.288889 37.714543 38.140274 38.566153 38.992260 39.418661 39.845434 40.272637
40.700347 41.128610 41.557499 41.987049 42.417326 42.848350 43.280178 43.712814
44.146303 44.580632 45.015833 45.451871 45.888764 46.326454 46.764942 47.204145
47.644045 48.084534 48.525571 48.967022 49.408823 49.850811 50.292897 50.734891
51.176675 51.618031 52.058817 52.498782 52.937758 53.375468 53.811716 54.246197
54.678691 55.108869 55.536488 55.961195 56.382728 56.800717 57.214881 57.624838
58.030295 58.430860 58.826234 59.216023 59.599926 59.977551 60.348601 60.712696
61.069547 61.418788 61.760149 62.093282 62.417938 62.733795 63.040627 63.338143
63.626143 63.904367 64.172644 64.430750 64.678539 64.915821 65.142482 65.358360
65.563368 65.757377 65.940321 66.112099 66.272666 66.421944 66.559904 66.686489
66.801684 66.905447 66.997772 67.078631 67.148023 67.205931 67.252357 67.287290
67.310733 67.322683 67.323141 67.312110 67.289590 67.255588 67.210105 67.153154
67.084736 67.004872 66.913566 66.810849 66.696731 66.571255 66.434442 66.286351
66.127014 65.956512 65.774893 65.582263 65.378688 65.164302 64.939196 64.703534
64.457432 64.201087 63.934643 63.658329 63.372321 63.076880 62.772208 62.458601
62.136287 61.805591 61.466764 61.120158 60.766045 60.404795 60.036696 59.662136
59.281410 58.894915 58.502952 58.105920 57.704119 57.297946 56.887691 56.473745
56.056385 55.635987 55.212813 54.787220 54.359451 53.929838 53.498602 53.066052
52.632382 52.197874 51.762696 51.327100 50.891228 50.455304 50.019442 49.583836
49.148573 48.713819 48.279637 47.846164 47.413437 46.981568 46.550572 46.120533
45.691449 45.263377 44.836297 44.410246 43.985185 43.561132 43.138034 42.715888
42.294633 41.874246 41.454657 41.035830 40.617686 40.200175 39.783214 39.366743
38.950674 38.534938 38.119449 37.704128 37.288889
37.666667 38.122834 38.579084 39.035502 39.492163 39.949156 40.406548 40.864426
41.322848 41.781896 42.241616 42.702086 43.163336 43.625436 44.088400 44.552286
45.017092 45.482862 45.949571 46.417250 46.885850 47.355384 47.825779 48.297028
48.769030 49.241756 49.715079 50.188942 50.663189 51.137738 51.612402 52.087070
52.561523 53.035623 53.509118 53.981840 54.453507 54.923921 55.392768 55.859823
56.324743 56.787277 57.247055 57.703801 58.157125 58.606728 59.052203 59.493236
59.929406 60.360388 60.785754 61.205176 61.618224 62.024572 62.423798 62.815582
63.199517 63.575296 63.942534 64.300943 64.650163 64.989932 65.319920 65.639895
65.949561 66.248717 66.537103 66.814550 67.080836 67.335825 67.579330 67.811246
68.031420 68.239775 68.436191 68.620613 68.792951 68.953168 69.101199 69.237024
69.360594 69.471904 69.570919 69.657640 69.732047 69.794142 69.843915 69.881368
69.906498 69.919307 69.919795 69.907964 69.883818 69.847356 69.798588 69.737511
69.664143 69.578482 69.480553 69.370358 69.247935 69.113294 68.966487 68.807535
68.636510 68.453450 68.258449 68.051566 67.832923 67.602602 67.360759 67.107501
66.843020 66.567453 66.281029 65.983917 65.676381 65.358626 65.030950 64.693589
64.346876 63.991076 63.626552 63.253593 62.872591 62.483852 62.087789 61.684721
61.275076 60.859182 60.437471 60.010273 59.578022 59.141040 58.699755 58.254480
57.805629 57.353498 56.898483 56.440860 55.981003 55.519163 55.055687 54.590799
54.124819 53.657942 53.190456 52.722526 52.254410 51.786243 51.318250 50.850538
50.383298 49.916610 49.450635 48.985426 48.521112 48.057721 47.595356 47.134022
46.673792 46.214652 45.756649 45.299752 44.843984 44.389298 43.935695 43.483115
43.031540 42.580898 42.131154 41.682227 41.234069 40.786589 40.339727 39.893389
39.447503 39.001974 38.556720 38.111647 37.666667
38.044444 38.531138 39.017924 39.504889 39.992129 40.479723 40.967765 41.456328
41.945502 42.435347 42.925950 43.417356 43.909645 44.402844 44.897024 45.392195
45.888413 46.385667 46.883998 47.383373 47.883815 48.385264 48.887723 49.391104
49.895389 50.400459 50.906270 51.412673 51.919595 52.426855 52.934351 53.441867
53.949272 54.456313 54.962827 55.468529 55.973221 56.476585 56.978392 57.478290
57.976020 58.471199 58.963540 59.452633 59.938167 60.419708 60.896925 61.369367
61.836686 62.298421 62.754216 63.203605 63.646230 64.081629 64.509448 64.929236
65.340653 65.743266 66.136753 66.520708 66.894834 67.258758 67.612211 67.954857
68.286461 68.606726 68.915455 69.212390 69.497370 69.770179 70.030690 70.278727
70.514196 70.736956 70.946941 71.144046 71.328226 71.499405 71.657558 71.802629