# vtk DataFile Version 3.0
Steady-state temperature (Jacobi)
ASCII
DATASET STRUCTURED_POINTS
DIMENSIONS 181 181 1
ORIGIN 0.0 0.0 0.0
SPACING 0.05 0.05 1.0
POINT_DATA 32761
SCALARS Temperature float 1
LOOKUP_TABLE default
32.000000 32.000000 32.000000 32.000000 32.000000 32.000000 32.000000 32.000000
32.000000 32.000000 32.000000 32.000000 32.000000 32.000000 32.000000 32.000000
32.000000 32.000000 32.000000 32.000000 32.000000 32.000000 32.000000 32.000000
32.000000 32.000000 32.000000 32.000000 32.000000 32.000000 32.000000 32.000000
32.000000 32.000000 32.000000 32.000000 32.000000 32.000000 32.000000 32.000000
32.000000 32.000000 32.000000 32.000000 32.000000 32.000000 32.000000 32.000000
32.000000 32.000000 32.000000 32.000000 32.000000 32.000000 32.000000 32.000000
32.000000 32.000000 32.000000 32.000000 32.000000 32.000000 32.000000 32.000000
32.000000 32.000000 32.000000 32.000000 32.000000 32.000000 32.000000 32.000000
32.000000 32.000000 32.000000 32.000000 32.000000 32.000000 32.000000 32.000000
32.000000 32.000000 32.000000 32.000000 32.000000 32.000000 32.000000 32.000000
32.000000 32.000000 32.000000 32.000000 32.000000 32.000000 32.000000 32.000000
32.000000 32.000000 32.000000 32.000000 32.000000 32.000000 32.000000 32.000000
32.000000 32.000000 32.000000 32.000000 32.000000 32.000000 32.000000 32.000000
32.000000 32.000000 32.000000 32.000000 32.000000 32.000000 32.000000 32.000000
32.000000 32.000000 32.000000 32.000000 32.000000 32.000000 32.000000 32.000000
32.000000 32.000000 32.000000 32.000000 32.000000 32.000000 32.000000 32.000000
32.000000 32.000000 32.000000 32.000000 32.000000 32.000000 32.000000 32.000000
32.000000 32.000000 32.000000 32.000000 32.000000 32.000000 32.000000 32.000000
32.000000 32.000000 32.000000 32.000000 32.000000 32.000000 32.000000 32.000000
32.000000 32.000000 32.000000 32.000000 32.000000 32.000000 32.000000 32.000000
32.000000 32.000000 32.000000 32.000000 32.000000 32.000000 32.000000 32.000000
32.000000 32.000000 32.000000 32.000000 32.000000
32.377778 32.403501 32.429234 32.454988 32.480770 32.506594 32.532465 32.558395
32.584392 32.610466 32.636621 32.662871 32.689217 32.715672 32.742235 32.768918
32.795719 32.822650 32.849705 32.876896 32.904214 32.931671 32.959255 32.986976
33.014821 33.042796 33.070888 33.099100 33.127416 33.155839 33.184349 33.212946
33.241610 33.270338 33.299106 33.327911 33.356725 33.385544 33.414339 33.443102
33.471802 33.500430 33.528953 33.557361 33.585619 33.613716 33.641614 33.669303
33.696744 33.723924 33.750806 33.777377 33.803597 33.829455 33.854911 33.879954
33.904545 33.928672 33.952300 33.975417 33.997987 34.020001 34.041425 34.062251
34.082447 34.102006 34.120899 34.139119 34.156641 34.173459 34.189551 34.204911
34.219519 34.233373 34.246454 34.258760 34.270277 34.281002 34.290923 34.300040
34.308341 34.315826 34.322488 34.328326 34.333334 34.337512 34.340855 34.343365
34.345038 34.345875 34.345875 34.345037 34.343363 34.340853 34.337509 34.333332
34.328326 34.322491 34.315833 34.308352 34.300057 34.290949 34.281038 34.270324
34.258821 34.246531 34.233468 34.219635 34.205050 34.189717 34.173656 34.156871
34.139386 34.121207 34.102359 34.082850 34.062707 34.041941 34.020580 33.998636
33.976140 33.953104 33.929563 33.905529 33.881038 33.856103 33.830761 33.805025
33.778935 33.752502 33.725767 33.698742 33.671466 33.643951 33.616237 33.588334
33.560281 33.532088 33.503792 33.475401 33.446951 33.418449 33.389929 33.361396
33.332881 33.304389 33.275948 33.247559 33.219250 33.191021 33.162894 33.134868
33.106965 33.079180 33.051532 33.024015 32.996645 32.969415 32.942336 32.915402
32.888622 32.861985 32.835501 32.809157 32.782958 32.756894 32.730966 32.705162
32.679483 32.653915 32.628456 32.603094 32.577825 32.552635 32.527519 32.502465
32.477464 32.452505 32.427578 32.402673 32.377778
32.755556 32.807009 32.858483 32.909996 32.961571 33.013223 33.064975 33.116841
33.168845 33.220998 33.273322 33.325826 33.378533 33.431446 33.484588 33.537958
33.591579 33.645444 33.699574 33.753959 33.808619 33.863536 33.918729 33.974175
34.029890 34.085847 34.142058 34.198490 34.255151 34.312005 34.369055 34.426260
34.483620 34.541086 34.598656 34.656277 34.713942 34.771593 34.829220 34.886759
34.944198 35.001469 35.058555 35.115386 35.171942 35.228151 35.283989 35.339381
35.394304 35.448681 35.502485 35.555642 35.608123 35.659853 35.710804 35.760903
35.810123 35.858391 35.905683 35.951927 35.997102 36.041140 36.084020 36.125680
36.166102 36.205227 36.243039 36.279486 36.314553 36.348194 36.380397 36.411121
36.440356 36.468066 36.494243 36.518858 36.541903 36.563355 36.583207 36.601440
36.618051 36.633022 36.646352 36.658027 36.668048 36.676403 36.683094 36.688113
36.691461 36.693134 36.693134 36.691458 36.688109 36.683089 36.676399 36.668045
36.658028 36.646358 36.633035 36.618074 36.601476 36.583259 36.563426 36.541998
36.518979 36.494396 36.468255 36.440588 36.411400 36.380730 36.348587 36.315013
36.280020 36.243655 36.205933 36.166907 36.126594 36.085051 36.042299 35.998399
35.953375 35.907292 35.860174 35.812093 35.763073 35.713188 35.662465 35.610979
35.558758 35.505878 35.452367 35.398301 35.343708 35.288664 35.233194 35.177374
35.121227 35.064826 35.008193 34.951398 34.894458 34.837442 34.780363 34.723286
34.666219 34.609224 34.552306 34.495520 34.438868 34.382400 34.326115 34.270057
34.214221 34.158645 34.103321 34.048281 33.993515 33.939049 33.884869 33.830996
33.777413 33.724137 33.671147 33.618456 33.566041 33.513909 33.462037 33.410426
33.359052 33.307913 33.256982 33.206255 33.155704 33.105321 33.055079 33.004965
32.954955 32.905031 32.855169 32.805352 32.755556
33.133333 33.210532 33.287760 33.365050 33.442428 33.519927 33.597571 33.675395
33.753416 33.831671 33.910173 33.988958 34.068033 34.147435 34.227164 34.307256
34.387703 34.468541 34.549754 34.631376 34.713385 34.795808 34.878619 34.961841
35.045437 35.129429 35.213771 35.298479 35.383501 35.468846 35.554454 35.640330
35.726404 35.812677 35.899071 35.985579 36.072118 36.158675 36.245159 36.331552
36.417757 36.503749 36.589427 36.674762 36.759647 36.844049 36.927857 37.011036
37.093472 37.175126 37.255885 37.335708 37.414480 37.492161 37.568637 37.643869
37.717745 37.790226 37.861207 37.930648 37.998450 38.064576 38.128933 38.191487
38.252151 38.310896 38.367642 38.422364 38.474988 38.525495 38.573819 38.619944
38.663812 38.705410 38.744689 38.781639 38.816217 38.848417 38.878203 38.905571
38.930491 38.952962 38.972960 38.990484 39.005517 39.018058 39.028095 39.035628
39.040651 39.043162 39.043161 39.040647 39.035623 39.028089 39.018052 39.005514
38.990486 38.972970 38.952983 38.930527 38.905625 38.878281 38.848524 38.816359
38.781822 38.744920 38.705696 38.664161 38.620364 38.574320 38.526086 38.475679
38.423166 38.368567 38.311957 38.253360 38.192858 38.130481 38.066316 38.000397
37.932821 37.863621 37.792902 37.720700 37.647125 37.572214 37.496081 37.418766
37.340384 37.260975 37.180657 37.099469 37.017528 36.934871 36.851615 36.767795
36.683525 36.598836 36.513837 36.428558 36.343103 36.257494 36.171833 36.086135
36.000495 35.914924 35.829509 35.744257 35.659245 35.574473 35.490014 35.405862
35.322079 35.238654 35.155642 35.073026 34.990854 34.909103 34.827811 34.746954
34.666561 34.586603 34.507102 34.428025 34.349387 34.271152 34.193329 34.115880
34.038805 33.962066 33.885657 33.809539 33.733700 33.658100 33.582724 33.507531
33.432501 33.357596 33.282788 33.208044 33.133333
33.511111 33.614076 33.717082 33.820166 33.923374 34.026737 34.130303 34.234098
34.338171 34.442542 34.547260 34.652339 34.757827 34.863729 34.970094 35.076917
35.184246 35.292067 35.400424 35.509294 35.618717 35.728661 35.839160 35.950172
36.061727 36.173771 36.286327 36.399332 36.512802 36.626662 36.740922 36.855495
36.970385 37.085493 37.200815 37.316244 37.431767 37.547266 37.662721 37.778006
37.893094 38.007850 38.122240 38.236123 38.349459 38.462100 38.574002 38.685014
38.795086 38.904066 39.011900 39.118436 39.223619 39.327296 39.429413 39.529821
39.628465 39.725200 39.819975 39.912651 40.003179 40.091427 40.177352 40.260829
40.341820 40.420210 40.495965 40.568983 40.639232 40.706621 40.771126 40.832665
40.891217 40.946713 40.999137 41.048428 41.094575 41.137527 41.177277 41.213781
41.247036 41.277008 41.303693 41.327065 41.347124 41.363850 41.377242 41.387289
41.393990 41.397340 41.397338 41.393985 41.387281 41.377234 41.363842 41.347120
41.327068 41.303706 41.277036 41.247085 41.213855 41.177383 41.137672 41.094766
41.048673 40.999446 40.947096 40.891684 40.833227 40.771796 40.707411 40.640156
40.570055 40.497202 40.421627 40.343435 40.262660 40.179418 40.093750 40.005779
39.915550 39.823198 39.728770 39.632409 39.534165 39.434186 39.332526 39.229337
39.124674 39.018691 38.911443 38.803086 38.693672 38.583358 38.472191 38.360327
38.247810 38.134789 38.021304 37.907500 37.793410 37.679172 37.564812 37.450459
37.336135 37.221957 37.107940 36.994192 36.880718 36.767619 36.654891 36.542622
36.430803 36.319510 36.208727 36.098519 35.988862 35.879812 35.771338 35.663484
35.556215 35.449564 35.343490 35.238018 35.133102 35.028756 34.924932 34.821635
34.718815 34.616467 34.514539 34.413020 34.311856 34.211030 34.110487 34.010203
33.910126 33.810223 33.710446 33.610758 33.511111
33.888889 34.017649 34.146458 34.275371 34.404431 34.533697 34.663204 34.793014
34.923157 35.053692 35.184643 35.316070 35.447985 35.580449 35.713464 35.847088
35.981313 36.116193 36.251708 36.387910 36.524765 36.662319 36.800526 36.939427
37.078962 37.219164 37.359960 37.501375 37.643322 37.785819 37.928763 38.072163
38.215904 38.359985 38.504277 38.648769 38.793321 38.937912 39.082389 39.226721
39.370746 39.514425 39.657585 39.800178 39.942024 40.083069 40.223127 40.362137
40.499909 40.636377 40.771351 40.904761 41.036416 41.166247 41.294065 41.419800
41.543269 41.664403 41.783025 41.899072 42.012373 42.122871 42.230405 42.334923
42.436277 42.534419 42.629214 42.720623 42.808522 42.892878 42.973582 43.050608
43.123860 43.193316 43.258895 43.320581 43.378303 43.432052 43.481768 43.527446
43.569036 43.606536 43.639908 43.669150 43.694234 43.715159 43.731906 43.744475
43.752855 43.757045 43.757043 43.752849 43.744466 43.731896 43.715151 43.694230
43.669155 43.639926 43.606573 43.569098 43.527540 43.481902 43.432235 43.378544
43.320890 43.259284 43.193798 43.124446 43.051314 42.974422 42.893869 42.809680
42.721967 42.630764 42.536194 42.438299 42.337216 42.232993 42.125778 42.015627
41.902700 41.787057 41.668870 41.548202 41.425235 41.300035 41.172790 41.043568
40.912563 40.779843 40.645604 40.509913 40.372965 40.234826 40.095689 39.955614
39.814791 39.673274 39.531248 39.388758 39.245981 39.102957 38.959850 38.816692
38.673639 38.530710 38.388050 38.245669 38.103699 37.962141 37.821112 37.680604
37.540722 37.401446 37.262868 37.124960 36.987799 36.851351 36.715676 36.580734
36.446574 36.313146 36.180487 36.048542 35.917336 35.786809 35.656973 35.527765
35.399187 35.271174 35.143715 35.016744 34.890243 34.764144 34.638420 34.513004
34.387861 34.262927 34.138159 34.013496 33.888889
34.266667 34.421256 34.575907 34.730678 34.885635 35.040828 35.196329 35.352177
35.508446 35.665166 35.822414 35.980208 36.138623 36.297667 36.457413 36.617856
36.779065 36.941024 37.103796 37.267349 37.431743 37.596930 37.762963 37.929778
38.097420 38.265810 38.434982 38.604841 38.775413 38.946584 39.118369 39.290639
39.463398 39.636500 39.809937 39.983548 40.157312 40.331054 40.504743 40.678188
40.851347 41.024018 41.196149 41.367526 41.538088 41.707614 41.876034 42.043120
42.208798 42.372835 42.535151 42.695515 42.853842 43.009904 43.163616 43.314752
43.463231 43.608832 43.751478 43.890959 44.027199 44.160003 44.289300 44.414908
44.536764 44.654700 44.768662 44.878495 44.984157 45.085506 45.182510 45.275043
45.363079 45.446510 45.525316 45.599406 45.668765 45.733315 45.793048 45.847900
45.897866 45.942895 45.982984 46.018095 46.048226 46.073350 46.093466 46.108556
46.118621 46.123652 46.123650 46.118614 46.108546 46.093455 46.073341 46.048223
46.018103 45.983009 45.942942 45.897944 45.848016 45.793213 45.733538 45.669058
45.599782 45.525788 45.447092 45.363787 45.275894 45.183523 45.086700 44.985552
44.880114 44.770527 44.656836 44.539197 44.417665 44.292411 44.163497 44.031110
43.895319 43.756324 43.614199 43.469158 43.321280 43.170787 43.017761 42.862432
42.704883 42.545349 42.383913 42.220810 42.056121 41.890080 41.722764 41.554403
41.385069 41.214984 41.044212 40.872969 40.701307 40.529432 40.357387 40.185366
40.013398 39.841666 39.670186 39.499126 39.328491 39.158433 38.988945 38.820163
38.652068 38.484778 38.318266 38.152632 37.987838 37.823968 37.660974 37.498925
37.337763 37.177541 37.018197 36.859764 36.702176 36.545454 36.389523 36.234391
36.079981 35.926287 35.773230 35.620792 35.468893 35.317504 35.166546 35.015978
34.865723 34.715734 34.565934 34.416269 34.266667
34.644444 34.824905 35.005437 35.186115 35.367002 35.548179 35.729700 35.911650
36.094071 36.277050 36.460617 36.644861 36.829797 37.015512 37.202010 37.389373
37.577589 37.766737 37.956789 38.147817 38.339775 38.532730 38.726616 38.921492
39.117274 39.314009 39.511595 39.710068 39.909306 40.109333 40.310009 40.511343
40.713175 40.915503 41.118147 41.321090 41.524136 41.727254 41.930230 42.133020
42.335394 42.537297 42.738486 42.938891 43.138260 43.336514 43.533390 43.728802
43.922481 44.114333 44.304088 44.491649 44.676743 44.859272 45.038970 45.215736
45.389310 45.559598 45.726347 45.889467 46.048719 46.204019 46.355144 46.502017
46.644431 46.782320 46.915493 47.043895 47.167355 47.285825 47.399154 47.507305
47.610145 47.707646 47.799693 47.886267 47.967269 48.042687 48.112440 48.176521
48.234862 48.287462 48.334267 48.375278 48.410454 48.439798 48.463281 48.480905
48.492655 48.498531 48.498528 48.492648 48.480895 48.463270 48.439789 48.410453
48.375289 48.334298 48.287520 48.234956 48.176660 48.112636 48.042952 47.967616
47.886710 47.800249 47.708332 47.610978 47.508306 47.400343 47.287225 47.168990
47.045791 46.917676 46.784819 46.647277 46.505242 46.358781 46.208105 46.053289
45.894562 45.732008 45.565868 45.396234 45.223361 45.047344 44.868448 44.686773
44.502589 44.315995 44.127268 43.936504 43.743979 43.549786 43.354199 43.157304
42.959368 42.760470 42.560867 42.360629 42.160003 41.959044 41.757987 41.556875
41.355928 41.155174 40.954815 40.754868 40.555517 40.356762 40.158770 39.961528
39.765181 39.569705 39.375226 39.181704 38.989248 38.797808 38.607471 38.418176
38.229992 38.042851 37.856801 37.671767 37.487781 37.304758 37.122716 36.941566
36.761307 36.581849 36.403176 36.225196 36.047880 35.871135 35.694919 35.519141
35.343749 35.168652 34.993791 34.819078 34.644444
35.022222 35.228601 35.435065 35.641691 35.848568 36.055765 36.263377 36.471459
36.680111 36.889375 37.099351 37.310068 37.521626 37.734036 37.947397 38.161704
38.377051 38.593414 38.810881 39.029411 39.249084 39.469836 39.691739 39.914710
40.138808 40.363929 40.590119 40.817252 41.045362 41.274299 41.504083 41.734541
41.965678 42.197301 42.429396 42.661749 42.894333 43.126911 43.359441 43.591668
43.823534 44.054768 44.285297 44.514836 44.743299 44.970390 45.196013 45.419862
45.641832 45.861614 46.079094 46.293964 46.506106 46.715213 46.921168 47.123669
47.322601 47.517672 47.708772 47.895621 48.078116 48.255993 48.429160 48.597368
48.760536 48.918436 49.070998 49.218016 49.359430 49.495058 49.624851 49.748646
49.866409 49.977998 50.083386 50.182454 50.275185 50.361476 50.441317 50.514627
50.581399 50.641568 50.695131 50.742039 50.782291 50.815852 50.842722 50.862878
50.876322 50.883043 50.883040 50.876315 50.862868 50.842711 50.815844 50.782293
50.742055 50.695171 50.641638 50.581511 50.514792 50.441548 50.361785 50.275588
50.182968 50.084029 49.978788 49.867369 49.749798 49.626218 49.496666 49.361308
49.220191 49.073503 48.921302 48.763799 48.601064 48.433328 48.260673 48.083351
47.901455 47.715254 47.524849 47.330526 47.132394 46.930751 46.725711 46.517581
46.306478 46.092715 45.876407 45.657871 45.437219 45.214764 44.990613 44.765076
44.538249 44.310434 44.081717 43.852387 43.622518 43.392386 43.162048 42.931764
42.701577 42.471728 42.242244 42.013345 41.785042 41.557534 41.330815 41.105064
40.880258 40.656553 40.433912 40.212467 39.992170 39.773128 39.555281 39.338715
39.123357 38.909273 38.696380 38.484724 38.274212 38.064871 37.856603 37.649416
37.443206 37.237964 37.033584 36.830041 36.627226 36.425100 36.223556 36.022539
35.821946 35.621711 35.421732 35.221934 35.022222
35.400000 35.632353 35.864798 36.097434 36.330344 36.563633 36.797372 37.031670
37.266585 37.502229 37.738643 37.975941 38.214147 38.453372 38.693623 38.935007
39.177511 39.421236 39.666149 39.912343 40.159761 40.408488 40.658445 40.909704
41.162160 41.415875 41.670719 41.926737 42.183775 42.441863 42.700820 42.960659
43.221176 43.482364 43.743994 44.006043 44.268257 44.530594 44.792780 45.054755
45.316222 45.577106 45.837094 46.096093 46.353775 46.610035 46.864532 47.117151
47.367544 47.615585 47.860923 48.103427 48.342746 48.578748 48.811086 49.039627
49.264035 49.484181 49.699741 49.910593 50.116430 50.317140 50.512434 50.702212
50.886206 51.064331 51.236342 51.402166 51.561583 51.714535 51.860827 52.000413
52.133123 52.258924 52.377669 52.489336 52.593802 52.691052 52.780985 52.863593
52.938794 53.006586 53.066904 53.119749 53.165073 53.202879 53.233132 53.255837
53.270974 53.278543 53.278541 53.270966 53.255827 53.233122 53.202873 53.165078
53.119772 53.066953 53.006671 52.938926 52.863785 52.781251 52.691408 52.594264
52.489923 52.378401 52.259823 52.134213 52.001719 51.862376 51.716356 51.563707
51.404626 51.239172 51.067569 50.889890 50.706383 50.517136 50.322419 50.122333
49.917172 49.707046 49.492270 49.272964 49.049458 48.821881 48.590574 48.355670
48.117521 47.876260 47.632244 47.385602 47.136693 46.885642 46.632802 46.378289
46.122450 45.865389 45.607441 45.348698 45.089479 44.829859 44.570141 44.310384
44.050868 43.791635 43.532945 43.274819 43.017494 42.760972 42.505467 42.250962
41.997644 41.745482 41.494635 41.245055 40.996878 40.750039 40.504650 40.260633
40.018073 39.776882 39.537121 39.298691 39.061633 38.825837 38.591323 38.357976
38.125794 37.894659 37.664550 37.435345 37.207007 36.979414 36.752512 36.526182
36.300354 36.074913 35.849778 35.624838 35.400000
35.777778 36.036161 36.294653 36.553349 36.812367 37.071791 37.331744 37.592295
37.853572 38.115629 38.378594 38.642503 38.907483 39.173552 39.440833 39.709323
39.979140 40.250258 40.522788 40.796679 41.072032 41.348773 41.626989 41.906580
42.187619 42.469979 42.753719 43.038681 43.324908 43.612215 43.900624 44.189923
44.480114 44.770957 45.062435 45.354279 45.646452 45.938660 46.230844 46.522687
46.814111 47.104776 47.394586 47.683183 47.970454 48.256027 48.539774 48.821311
49.100501 49.376951 49.650517 49.920805 50.187665 50.450707 50.709780 50.964500
51.214721 51.460072 51.700411 51.935386 52.164863 52.388510 52.606208 52.817646
53.022719 53.221144 53.412829 53.597519 53.775140 53.945462 54.108428 54.263837
54.411645 54.551679 54.683908 54.808186 54.924493 55.032706 55.132815 55.224720
55.308418 55.383828 55.450952 55.509729 55.560163 55.602208 55.635870 55.661119
55.677960 55.686378 55.686375 55.677953 55.661110 55.635861 55.602206 55.560173
55.509760 55.451013 55.383930 55.308572 55.224942 55.133119 55.033110 54.925016
54.808849 54.684733 54.552690 54.412868 54.265301 54.110163 53.947500 53.777515
53.600267 53.415990 53.224757 53.026829 52.822297 52.611450 52.394392 52.171440
51.942712 51.708546 51.469077 51.224661 50.975441 50.721793 50.463864 50.202044
49.936483 49.667578 49.395479 49.120585 48.843043 48.563249 48.281342 47.997712
47.712487 47.426045 47.138500 46.850215 46.561288 46.272064 45.982621 45.693282
45.404106 45.115393 44.827180 44.539743 44.253095 43.967487 43.682911 43.399589
43.117495 42.836821 42.557521 42.279761 42.003475 41.728801 41.455660 41.184158
40.914204 40.645877 40.379073 40.113846 39.850081 39.587809 39.326904 39.067375
38.809092 38.552040 38.296086 38.041195 37.787231 37.534142 37.281794 37.030115
36.778975 36.528288 36.277929 36.027799 35.777778
36.155556 36.440036 36.724631 37.009465 37.294640 37.580288 37.866497 38.153403
38.441079 38.729665 39.019213 39.309863 39.601648 39.894707 40.189049 40.484808
40.781970 41.080662 41.380842 41.682630 41.985957 42.290928 42.597449 42.905609
43.215283 43.526546 43.839242 44.153426 44.468912 44.785736 45.103678 45.422755
45.742715 46.063550 46.384982 46.706977 47.029227 47.351677 47.673990 47.996088
48.317609 48.638455 48.958239 49.276843 49.593864 49.909165 50.222327 50.533201
50.841356 51.146632 51.448596 51.747078 52.041645 52.332127 52.618094 52.899380
53.175565 53.446488 53.711747 53.971188 54.224431 54.471336 54.711548 54.944939
55.171184 55.390172 55.601608 55.805400 56.001282 56.189182 56.368864 56.540274
56.703209 56.857627 57.003357 57.140372 57.268527 57.387807 57.498092 57.599377
57.691567 57.774660 57.848584 57.913340 57.968875 58.015193 58.052257 58.080070
58.098612 58.107885 58.107883 58.098606 58.080062 58.052251 58.015195 57.968892
57.913381 57.848657 57.774780 57.691746 57.599631 57.498437 57.388263 57.269115
57.141114 57.004278 56.858754 56.704570 56.541901 56.370789 56.191440 56.003911
55.808441 55.605102 55.394166 55.175723 54.950075 54.717332 54.477827 54.231685
53.979267 53.720715 53.456414 53.186519 52.911436 52.631329 52.346622 52.057482
51.764346 51.467383 51.167035 50.863470 50.557128 50.248171 49.937034 49.623869
49.309101 48.992866 48.675575 48.357347 48.038574 47.719355 47.400059 47.080764
46.761813 46.443261 46.125424 45.808333 45.492275 45.177256 44.863535 44.551093
44.240158 43.930689 43.622883 43.316678 43.012239 42.709488 42.408556 42.109348
41.811967 41.516301 41.222426 40.930217 40.639721 40.350804 40.063486 39.777625
39.493217 39.210115 38.928290 38.647594 38.367976 38.089286 37.811457 37.534339
37.257846 36.981836 36.706204 36.430816 36.155556
36.533333 36.843977 37.154753 37.465781 37.777202 38.089122 38.401689 38.714993
39.029185 39.344336 39.660600 39.978025 40.296766 40.616847 40.938417 41.261478
41.586171 41.912470 42.240509 42.570231 42.901758 43.235005 43.570078 43.906858
44.245438 44.585664 44.927608 45.271086 45.616146 45.962570 46.310383 46.659333
47.009421 47.360359 47.712124 48.064394 48.417121 48.769952 49.122811 49.475317
49.827369 50.178558 50.528762 50.877548 51.224773 51.569985 51.913022 52.253419
52.591002 52.925294 53.256111 53.582976 53.905698 54.223803 54.537101 54.845126
55.147692 55.444350 55.734921 56.018978 56.296355 56.566649 56.829711 57.085169
57.332891 57.572538 57.803998 58.026965 58.241351 58.446882 58.643491 58.830940
59.009180 59.178006 59.337386 59.487149 59.627275 59.757623 59.878184 59.988845
60.089604 60.180372 60.261153 60.331880 60.392559 60.443141 60.483634 60.514006
60.534262 60.544388 60.544386 60.534257 60.514000 60.483632 60.443148 60.392584
60.331931 60.261242 60.180512 60.089810 59.989133 59.878574 59.758134 59.627931
59.487974 59.338407 59.179252 59.010682 58.832733 58.645610 58.449365 58.244239
58.030303 57.807831 57.576915 57.337866 57.090794 56.836046 56.573752 56.304292
56.027815 55.744730 55.455203 55.159667 54.858303 54.551565 54.239640 53.923001
53.601838 53.276633 52.947576 52.615152 52.279547 51.941242 51.600413 51.257533
50.912764 50.566565 50.219079 49.870747 49.521691 49.172329 48.822759 48.473373
48.124244 47.775733 47.427888 47.081038 46.735206 46.390687 46.047476 45.705838
45.365741 45.027413 44.690802 44.356100 44.023232 43.692358 43.363382 43.036430
42.711390 42.388355 42.067198 41.747980 41.430561 41.114975 40.801071 40.488855
40.178168 39.868990 39.561158 39.254628 38.949235 38.644913 38.341497 38.038901
37.736965 37.435583 37.134602 36.833901 36.533333
36.911111 37.247994 37.585014 37.922324 38.260046 38.598340 38.937313 39.277131
39.617880 39.959730 40.302747 40.647099 40.992829 41.340102 41.688934 42.039486
42.391746 42.745864 43.101798 43.459688 43.819459 44.181237 44.544913 44.910594
45.278138 45.647632 46.018896 46.391996 46.766714 47.143091 47.520873 47.900075
48.280403 48.661845 49.044072 49.427043 49.810391 50.194048 50.577613 50.960990
51.343748 51.725762 52.106573 52.486034 52.863661 53.239284 53.612403 53.982829
54.350049 54.713860 55.073743 55.429487 55.780572 56.126785 56.467613 56.802844
57.131980 57.454816 57.770874 58.079962 58.381628 58.675696 58.961745 59.239620
59.508934 59.769554 60.021130 60.263552 60.496510 60.719917 60.933502 61.137199
61.330774 61.514184 61.687231 61.849887 62.001988 62.143522 62.274354 62.394483
62.503802 62.602316 62.689943 62.766693 62.832504 62.887387 62.931300 62.964251
62.986217 62.997203 62.997201 62.986213 62.964248 62.931302 62.887401 62.832538
62.766757 62.690050 62.602479 62.504037 62.394809 62.274790 62.144091 62.002715
61.850798 61.688355 61.515554 61.332422 61.139162 60.935818 60.722630 60.499663
60.267192 60.025307 59.774322 59.514348 59.245741 58.968633 58.683419 58.390253
58.089564 57.781528 57.466602 57.144981 56.817149 56.483310 56.143972 55.799346
55.449951 55.096004 54.738030 54.376241 54.011164 53.643003 53.272279 52.899180
52.524215 52.147555 51.769691 51.390771 51.011262 50.631288 50.251290 49.871362
49.491915 49.113015 48.735038 48.358024 47.982310 47.607907 47.235117 46.863922
46.494586 46.127064 45.761584 45.398075 45.036725 44.677443 44.320380 43.965423
43.612688 43.262045 42.913575 42.567131 42.222764 41.880314 41.539799 41.201052
40.864061 40.528651 40.194785 39.862284 39.531086 39.201010 38.871971 38.543792
38.216368 37.889525 37.563140 37.237049 36.911111
37.288889 37.652083 38.015435 38.379088 38.743211 39.107932 39.473426 39.839802
40.207242 40.575830 40.945751 41.317065 41.689955 42.064454 42.440740 42.818818
43.198858 43.580832 43.964899 44.350999 44.739277 45.129634 45.522200 45.916841
46.313663 46.712494 47.113417 47.516221 47.920964 48.327393 48.735538 49.145105
49.556094 49.968172 50.381307 50.795126 51.209567 51.624216 52.038982 52.453414
52.867389 53.280427 53.692375 54.102723 54.511293 54.917552 55.321300 55.721986
56.119392 56.512957 56.902450 57.287307 57.667290 58.041837 58.410713 58.773367
59.129568 59.478784 59.820796 60.155098 60.481488 60.799491 61.108926 61.409356
61.700621 61.982326 62.254338 62.516302 62.768114 63.009459 63.240260 63.460247
63.669363 63.867379 64.054262 64.229819 64.394033 64.546749 64.687962 64.817548
64.935512 65.041757 65.136294 65.219051 65.290040 65.349209 65.396571 65.432093
65.455783 65.467626 65.467625 65.455781 65.432094 65.396579 65.349231 65.290085
65.219130 65.136420 65.041945 64.935779 64.817913 64.688448 64.547379 64.394835
64.230820 64.055494 63.868876 63.671161 63.462385 63.242781 63.012406 62.771536
62.520249 62.258865 61.987489 61.706481 61.415976 61.116375 60.807838 60.490809
60.165470 59.832302 59.491508 59.143602 58.788803 58.427651 58.060378 57.687540
57.309377 56.926457 56.539018 56.147633 55.752533 55.354288 54.953117 54.549579
54.143874 53.736544 53.327768 52.918065 52.507586 52.096822 51.685896 51.275266
50.865024 50.455593 50.047033 49.639728 49.233706 48.829312 48.426542 48.025700
47.626752 47.229962 46.835266 46.442887 46.052737 45.664996 45.279552 44.896549
44.515852 44.137566 43.761540 43.387843 43.016307 42.646967 42.279645 41.914342
41.550872 41.189205 40.829149 40.470648 40.113506 39.757642 39.402861 39.049058
38.696043 38.343689 37.991813 37.640271 37.288889
37.666667 38.056254 38.446006 38.836100 39.226683 39.617942 40.010008 40.403073
40.797245 41.192721 41.589583 41.988029 42.388113 42.790030 43.193804 43.599623
44.007479 44.417548 44.829788 45.244364 45.661193 46.080423 46.501934 46.925854
47.352020 47.780536 48.211200 48.644086 49.078950 49.515837 49.954457 50.394826
50.836608 51.279787 51.723982 52.169143 52.614847 53.061008 53.507164 53.953193
54.398597 54.843220 55.286531 55.728344 56.168098 56.605582 57.040210 57.471749
57.899600 58.323511 58.742873 59.157427 59.566562 59.970016 60.367186 60.757812
61.141308 61.517426 61.885605 62.245610 62.596912 62.939301 63.272285 63.595677
63.909030 64.212186 64.504741 64.786568 65.057312 65.316874 65.564946 65.801457
66.026145 66.238964 66.439695 66.628313 66.804638 66.968664 67.120246 67.259389
67.385980 67.500032 67.601459 67.690278 67.766427 67.829920 67.880718 67.918831
67.944238 67.956945 67.956945 67.944239 67.918837 67.880732 67.829952 67.766484
67.690374 67.601607 67.500248 67.386282 67.259798 67.120786 66.969360 66.805518
66.629408 66.441038 66.240593 66.028097 65.803776 65.567674 65.320061 65.061008
64.790829 64.509622 64.217750 63.915341 63.602805 63.280299 62.948279 62.606933
62.256758 61.897967 61.531096 61.156380 60.774387 60.385369 59.989918 59.588295
59.181112 58.768630 58.351471 57.929893 57.504516 57.075590 56.643725 56.209154
55.772473 55.333891 54.893982 54.452929 54.011275 53.569173 53.127134 52.685278
52.244076 51.803615 51.364326 50.926259 50.489804 50.054976 49.622120 49.191217
48.762570 48.336126 47.912143 47.490539 47.071529 46.655003 46.241132 45.829784
45.421087 45.014888 44.611275 44.210078 43.811348 43.414898 43.020743 42.628688
42.238713 41.850614 41.464341 41.079686 40.696570 40.314784 39.934223 39.554680
39.176028 38.798063 38.420639 38.043562 37.666667
38.044444 38.460503 38.876748 39.293346 39.710497 40.128350 40.547112 40.966913
41.387962 41.810365 42.234335 42.659948 43.087416 43.516784 43.948260 44.381854
44.817764 45.255966 45.696645 46.139738 46.585414 47.033568 47.484348 47.937609
48.393474 48.851752 49.312540 49.775602 50.241002 50.708459 51.178003 51.649305
52.122361 52.596792 53.072559 53.549236 54.026744 54.504613 54.982728 55.460573
55.937997 56.414445 56.889731 57.363265 57.834830 58.303808 58.769954 59.232627
59.691562 60.146104 60.595972 61.040506 61.479419 61.912054 62.338122 62.756983
63.168354 63.571618 63.966507 64.352435 64.729156 65.096123 65.453117 65.799635
66.135489 66.460225 66.773690 67.075479 67.365473 67.643321 67.908933 68.162012
68.402497 68.630138 68.844901 69.046582 69.235167 69.410490 69.572557 69.721236