# vtk DataFile Version 3.0
Steady-state temperature (Jacobi)
ASCII
DATASET STRUCTURED_POINTS
DIMENSIONS 181 181 1
ORIGIN 0.0 0.0 0.0
SPACING 0.05 0.05 1.0
POINT_DATA 32761
SCALARS Temperature float 1
LOOKUP_TABLE default
32.000000 32.000000 32.000000 32.000000 32.000000 32.000000 32.000000 32.000000
32.000000 32.000000 32.000000 32.000000 32.000000 32.000000 32.000000 32.000000
32.000000 32.000000 32.000000 32.000000 32.000000 32.000000 32.000000 32.000000
32.000000 32.000000 32.000000 32.000000 32.000000 32.000000 32.000000 32.000000
32.000000 32.000000 32.000000 32.000000 32.000000 32.000000 32.000000 32.000000
32.000000 32.000000 32.000000 32.000000 32.000000 32.000000 32.000000 32.000000
32.000000 32.000000 32.000000 32.000000 32.000000 32.000000 32.000000 32.000000
32.000000 32.000000 32.000000 32.000000 32.000000 32.000000 32.000000 32.000000
32.000000 32.000000 32.000000 32.000000 32.000000 32.000000 32.000000 32.000000
32.000000 32.000000 32.000000 32.000000 32.000000 32.000000 32.000000 32.000000
32.000000 32.000000 32.000000 32.000000 32.000000 32.000000 32.000000 32.000000
32.000000 32.000000 32.000000 32.000000 32.000000 32.000000 32.000000 32.000000
32.000000 32.000000 32.000000 32.000000 32.000000 32.000000 32.000000 32.000000
32.000000 32.000000 32.000000 32.000000 32.000000 32.000000 32.000000 32.000000
32.000000 32.000000 32.000000 32.000000 32.000000 32.000000 32.000000 32.000000
32.000000 32.000000 32.000000 32.000000 32.000000 32.000000 32.000000 32.000000
32.000000 32.000000 32.000000 32.000000 32.000000 32.000000 32.000000 32.000000
32.000000 32.000000 32.000000 32.000000 32.000000 32.000000 32.000000 32.000000
32.000000 32.000000 32.000000 32.000000 32.000000 32.000000 32.000000 32.000000
32.000000 32.000000 32.000000 32.000000 32.000000 32.000000 32.000000 32.000000
32.000000 32.000000 32.000000 32.000000 32.000000 32.000000 32.000000 32.000000
32.000000 32.000000 32.000000 32.000000 32.000000 32.000000 32.000000 32.000000
32.000000 32.000000 32.000000 32.000000 32.000000
32.377778 32.379228 32.380708 32.382256 32.383896 32.385670 32.387596 32.389720
32.392055 32.394651 32.397512 32.400695 32.404195 32.408072 32.412315 32.416985
32.422064 32.427617 32.433617 32.440130 32.447122 32.454660 32.462702 32.471317
32.480453 32.490180 32.500439 32.511300 32.522694 32.534691 32.547216 32.560337
32.573971 32.588186 32.602890 32.618151 32.633870 32.650112 32.666773 32.683916
32.701430 32.719377 32.737641 32.756283 32.775180 32.794393 32.813796 32.833446
32.853217 32.873163 32.893156 32.913250 32.933315 32.953405 32.973390 32.993322
33.013074 33.032697 33.052066 33.071232 33.090073 33.108638 33.126812 33.144642
33.162019 33.178988 33.195447 33.211441 33.226872 33.241785 33.256091 33.269831
33.282925 33.295411 33.307217 33.318379 33.328833 33.338612 33.347662 33.356010
33.363610 33.370487 33.376603 33.381979 33.386584 33.390435 33.393511 33.395821
33.397354 33.398114 33.398097 33.397304 33.395738 33.393393 33.390284 33.386397
33.381756 33.376343 33.370189 33.363273 33.355632 33.347242 33.338149 33.328324
33.317822 33.306610 33.294753 33.282213 33.269063 33.255264 33.240897 33.225920
33.210421 33.194358 33.177827 33.160782 33.143327 33.125415 33.107157 33.088504
33.069572 33.050314 33.030848 33.011126 32.991271 32.971235 32.951142 32.930943
32.910766 32.890558 32.870449 32.850385 32.830495 32.810725 32.791201 32.771867
32.752848 32.734086 32.715702 32.697635 32.680004 32.662746 32.645974 32.629623
32.613800 32.598439 32.583640 32.569336 32.555620 32.542425 32.529834 32.517779
32.506339 32.495442 32.485159 32.475419 32.466285 32.457686 32.449675 32.442184
32.435258 32.428827 32.422930 32.417500 32.412564 32.408060 32.404006 32.400342
32.397079 32.394160 32.391589 32.389310 32.387321 32.385570 32.384049 32.382708
32.381533 32.380481 32.379528 32.378636 32.377778
32.755556 32.758478 32.761467 32.764580 32.767894 32.771453 32.775345 32.779600
32.784317 32.789511 32.795288 32.801650 32.808712 32.816459 32.825013 32.834344
32.844578 32.855671 32.867753 32.880765 32.894838 32.909897 32.926079 32.943289
32.961666 32.981099 33.001729 33.023427 33.046334 33.070306 33.095481 33.121699
33.149099 33.177504 33.207051 33.237548 33.269129 33.301589 33.335058 33.369320
33.404500 33.440370 33.477054 33.514313 33.552266 33.590667 33.629633 33.668910
33.708611 33.748479 33.788624 33.828788 33.869076 33.909230 33.949355 33.989194
34.028849 34.068070 34.106954 34.145259 34.183080 34.220184 34.256665 34.292299
34.327178 34.361090 34.394125 34.426085 34.457057 34.486856 34.515567 34.543021
34.569298 34.594245 34.617937 34.640238 34.661216 34.680754 34.698912 34.715589
34.730840 34.744578 34.756850 34.767589 34.776830 34.784523 34.790693 34.795308
34.798383 34.799901 34.799868 34.798283 34.795141 34.790458 34.784219 34.776456
34.767143 34.756331 34.743982 34.730165 34.714834 34.698073 34.679827 34.660198
34.639125 34.616724 34.592929 34.567874 34.541485 34.513913 34.485080 34.455152
34.424047 34.391948 34.358767 34.324705 34.289669 34.253872 34.217222 34.179943
34.141941 34.103449 34.064372 34.024953 33.985094 33.945045 33.904706 33.864332
33.823819 33.783428 33.743051 33.702947 33.663008 33.623492 33.584285 33.545641
33.507445 33.469945 33.433021 33.396913 33.361498 33.327007 33.293314 33.260637
33.228847 33.198150 33.168414 33.139832 33.112268 33.085901 33.060594 33.036509
33.013508 32.991738 32.971059 32.951602 32.933228 32.916051 32.899932 32.884969
32.871025 32.858181 32.846304 32.835457 32.825510 32.816512 32.808336 32.801016
32.794429 32.788595 32.783398 32.778840 32.774815 32.771310 32.768225 32.765536
32.763151 32.761032 32.759097 32.757295 32.755556
33.133333 33.137778 33.142315 33.147054 33.152071 33.157489 33.163366 33.169839
33.176946 33.184839 33.193532 33.203189 33.213804 33.225550 33.238399 33.252534
33.267901 33.284692 33.302829 33.322511 33.343633 33.366400 33.390684 33.416691
33.444269 33.473625 33.504582 33.537349 33.571723 33.607912 33.645690 33.685264
33.726381 33.769247 33.813587 33.859601 33.906995 33.955965 34.006193 34.057874
34.110672 34.164773 34.219828 34.276018 34.332978 34.390886 34.449365 34.508588
34.568172 34.628281 34.688530 34.749080 34.809542 34.870074 34.930289 34.990341
35.049849 35.108963 35.167311 35.225041 35.281791 35.337707 35.392442 35.446137
35.498465 35.549562 35.599120 35.647271 35.693730 35.738623 35.781687 35.823044
35.862453 35.900030 35.935560 35.969149 36.000608 36.030033 36.057260 36.082376
36.105241 36.125931 36.144330 36.160501 36.174355 36.185939 36.195190 36.202139
36.206749 36.209035 36.208985 36.206599 36.201889 36.194838 36.185483 36.173794
36.159833 36.143551 36.125038 36.104231 36.081244 36.056002 36.028643 35.999081
35.967480 35.933743 35.898058 35.860319 35.820740 35.779207 35.735959 35.690874
35.644215 35.595855 35.546079 35.494756 35.442193 35.388254 35.333265 35.277087
35.220065 35.162055 35.103418 35.044006 34.984192 34.923826 34.863289 34.802428
34.741630 34.680738 34.620141 34.559679 34.499739 34.440156 34.381314 34.323043
34.265719 34.209167 34.153752 34.099294 34.046146 33.994120 33.943556 33.894261
33.846554 33.800239 33.755616 33.712485 33.671123 33.631327 33.593352 33.556991
33.522478 33.489603 33.458574 33.429182 33.401611 33.375653 33.351465 33.328842
33.307917 33.288486 33.270659 33.254237 33.239304 33.225668 33.213390 33.202283
33.192385 33.183520 33.175702 33.168763 33.162698 33.157349 33.152690 33.148575
33.144959 33.141709 33.138761 33.135997 33.133333
33.511111 33.517144 33.523313 33.529729 33.536550 33.543863 33.551844 33.560556
33.570194 33.580792 33.592561 33.605507 33.619856 33.635585 33.652932 33.671843
33.692568 33.715020 33.739459 33.765765 33.794206 33.824628 33.857306 33.892052
33.929142 33.968358 34.009977 34.053746 34.099943 34.148281 34.199038 34.251895
34.307125 34.364378 34.423924 34.485383 34.549020 34.614425 34.681857 34.750884
34.821755 34.894014 34.967907 35.042955 35.119397 35.196739 35.275211 35.354307
35.434252 35.514532 35.595362 35.676226 35.757334 35.838169 35.918938 35.999128
36.078940 36.157873 36.236122 36.313199 36.389297 36.463946 36.537333 36.609011
36.679162 36.747364 36.813795 36.878058 36.940327 37.000235 37.057948 37.113130
37.165940 37.216074 37.263680 37.308488 37.350635 37.389884 37.426359 37.459858
37.490487 37.518079 37.542724 37.564289 37.582845 37.598292 37.610682 37.619948
37.626123 37.629172 37.629105 37.625923 37.619615 37.610213 37.597685 37.582098
37.563398 37.541686 37.516889 37.489140 37.458349 37.424682 37.388033 37.348601
37.306264 37.261258 37.213446 37.163096 37.110062 37.054644 36.996686 36.936522
36.873986 36.809444 36.742723 36.674220 36.603755 36.531751 36.458026 36.383028
36.306568 36.229117 36.150482 36.071153 35.990933 35.910324 35.829126 35.747851
35.666295 35.584975 35.503681 35.422932 35.342512 35.262935 35.183980 35.106154
35.029228 34.953697 34.879325 34.806591 34.735251 34.665767 34.597886 34.532048
34.467994 34.406137 34.346213 34.288607 34.233051 34.179899 34.128879 34.080315
34.033932 33.990022 33.948306 33.909046 33.871964 33.837286 33.804737 33.774510
33.746332 33.720364 33.696339 33.674384 33.654239 33.635999 33.619412 33.604543
33.591149 33.579266 33.568664 33.559346 33.551097 33.543894 33.537535 33.531971
33.527018 33.522599 33.518549 33.514769 33.511111
33.888889 33.896611 33.904488 33.912704 33.921385 33.930740 33.940863 33.951987
33.964173 33.977676 33.992522 34.008984 34.027052 34.047019 34.068834 34.092805
34.118844 34.147270 34.177956 34.211230 34.246924 34.285375 34.326372 34.370259
34.416782 34.466289 34.518483 34.573713 34.631642 34.692617 34.756258 34.822912
34.892158 34.964338 35.038993 35.116458 35.196238 35.278662 35.363200 35.450172
35.539020 35.630053 35.722687 35.817220 35.913047 36.010458 36.108827 36.208436
36.308647 36.409734 36.511050 36.612861 36.714519 36.816282 36.917507 37.018445
37.118462 37.217805 37.315853 37.412848 37.508190 37.602116 37.694051 37.784226
37.872095 37.957885 38.041082 38.121906 38.199880 38.275215 38.347473 38.416855
38.482965 38.545991 38.605578 38.661902 38.714648 38.763979 38.809622 38.851720
38.890043 38.924715 38.955549 38.982645 39.005859 39.025267 39.040766 39.052409
39.060132 39.063963 39.063880 39.059883 39.051992 39.040180 39.024509 39.004926
38.981533 38.954253 38.923230 38.888362 38.849836 38.807528 38.761667 38.712109
38.659125 38.602554 38.542709 38.479413 38.413023 38.343346 38.270782 38.195127
38.116819 38.035647 37.952088 37.865921 37.777660 37.687078 37.594721 37.500358
37.404564 37.307102 37.208572 37.108733 37.008206 36.906744 36.804983 36.702671
36.600453 36.498073 36.396177 36.294503 36.193698 36.093489 35.994517 35.896501
35.800069 35.704932 35.611700 35.520074 35.430642 35.343097 35.258000 35.175035
35.094734 35.016771 34.941646 34.869026 34.799374 34.732352 34.668384 34.607128
34.548970 34.493563 34.441252 34.391691 34.345182 34.301381 34.260549 34.222343
34.186984 34.154133 34.123972 34.096167 34.070860 34.047728 34.026872 34.007981
33.991118 33.975986 33.962609 33.950708 33.940270 33.931034 33.922954 33.915787
33.909455 33.903738 33.898526 33.893623 33.888889
34.266667 34.276187 34.285912 34.296011 34.306720 34.318174 34.330639 34.344208
34.359175 34.375593 34.393781 34.413750 34.435838 34.460012 34.486632 34.515617
34.547343 34.581682 34.619023 34.659190 34.702583 34.748975 34.798775 34.851706
34.908182 34.967874 35.031200 35.097780 35.168032 35.241526 35.318678 35.399009
35.482929 35.569913 35.660365 35.753713 35.850353 35.949672 36.052056 36.156852
36.264437 36.374122 36.486273 36.600172 36.716173 36.833534 36.952595 37.072599
37.193874 37.315650 37.438246 37.560885 37.683878 37.806449 37.928901 38.050465
38.171438 38.291067 38.409640 38.526426 38.641708 38.754782 38.865925 38.974466
39.080676 39.183921 39.284466 39.381718 39.475933 39.566564 39.653858 39.737313
39.817164 39.892961 39.964922 40.032646 40.096337 40.155644 40.210749 40.261352
40.307615 40.349288 40.386505 40.419069 40.447086 40.470409 40.489115 40.503105
40.512426 40.517029 40.516930 40.512128 40.502606 40.488413 40.469501 40.445969
40.417736 40.384952 40.347508 40.305601 40.259095 40.208239 40.152872 40.093293
40.029318 39.961297 39.889026 39.812907 39.732718 39.648911 39.561250 39.470235
39.375619 39.277950 39.176971 39.073273 38.966593 38.857564 38.745914 38.632316
38.516492 38.399145 38.279994 38.159771 38.038186 37.915993 37.792898 37.669669
37.546005 37.422682 37.299391 37.176911 37.054922 36.934200 36.814415 36.696329
36.579602 36.464979 36.352110 36.241714 36.133429 36.027947 35.924894 35.824927
35.727663 35.633720 35.542704 35.455195 35.370788 35.290018 35.212476 35.138648
35.068121 35.001333 34.937869 34.878116 34.821660 34.768838 34.719237 34.673147
34.630157 34.590507 34.553795 34.520213 34.489367 34.461400 34.435934 34.413063
34.392423 34.374065 34.357643 34.343162 34.330297 34.319011 34.309002 34.300194
34.292308 34.285229 34.278709 34.272594 34.266667
34.644444 34.655911 34.667598 34.679763 34.692584 34.706357 34.721216 34.737488
34.755261 34.774894 34.796424 34.820237 34.846321 34.875084 34.906463 34.940885
34.978233 35.018951 35.062866 35.110437 35.161431 35.216320 35.274812 35.337388
35.403694 35.474216 35.548543 35.627160 35.709598 35.796342 35.886862 35.981638
36.080088 36.182683 36.288784 36.398856 36.512209 36.629296 36.749378 36.872898
36.999074 37.128334 37.259858 37.394062 37.530095 37.668356 37.807970 37.949323
38.091523 38.234943 38.378678 38.523093 38.667280 38.811592 38.955127 39.098230
39.240013 39.380813 39.519762 39.657190 39.792260 39.925294 40.055491 40.183166
40.307560 40.428981 40.546715 40.661063 40.771362 40.877903 40.980077 41.078162
41.171605 41.260671 41.344863 41.424429 41.498931 41.568595 41.633042 41.692473
41.746570 41.795506 41.839021 41.877256 41.910010 41.937392 41.959259 41.975683
41.986580 41.991985 41.991869 41.986232 41.975102 41.958441 41.936335 41.908708
41.875704 41.837212 41.793433 41.744224 41.689844 41.630118 41.565366 41.495385
41.420552 41.340640 41.256087 41.166645 41.072809 40.974313 40.871710 40.764721
40.653956 40.539121 40.420880 40.298932 40.173990 40.045745 39.914958 39.781312
39.645609 39.507527 39.367904 39.226411 39.083914 38.940078 38.795793 38.650713
38.505744 38.360531 38.215986 38.071744 37.928714 37.786522 37.646065 37.506957
37.370079 37.235032 37.102670 36.972582 36.845591 36.721272 36.600410 36.482568
36.368490 36.257724 36.150969 36.047761 35.948749 35.853461 35.762490 35.675359
35.592606 35.513748 35.439266 35.368675 35.302399 35.239953 35.181703 35.127167
35.076654 35.029688 34.986521 34.946687 34.910381 34.877150 34.847132 34.819894
34.795518 34.773588 34.754137 34.736772 34.721472 34.707871 34.695901 34.685222
34.675722 34.667090 34.659171 34.651689 34.644444
35.022222 35.035787 35.049628 35.063972 35.079140 35.095310 35.112841 35.131860
35.152763 35.175622 35.200864 35.228506 35.259003 35.292314 35.328919 35.368713
35.412199 35.459211 35.510267 35.565136 35.624352 35.687616 35.755473 35.827556
35.904418 35.985622 36.071724 36.162223 36.257671 36.357500 36.462260 36.571316
36.685211 36.803247 36.925957 37.052583 37.183646 37.318331 37.457144 37.599219
37.745047 37.893714 38.045697 38.200041 38.357206 38.516205 38.677483 38.840025
39.004263 39.169165 39.335150 39.501179 39.667655 39.833545 39.999239 40.163715
40.327355 40.489156 40.649492 40.807390 40.963216 41.116034 41.266204 41.412833
41.556276 41.695690 41.831420 41.962681 42.089809 42.212078 42.329812 42.442348
42.549997 42.652160 42.749129 42.840374 42.926163 43.006035 43.080232 43.148359
43.210630 43.266715 43.316797 43.360613 43.398306 43.429681 43.454844 43.473662
43.486200 43.492393 43.492261 43.485804 43.472999 43.453911 43.428476 43.396821
43.358842 43.314734 43.264350 43.207953 43.145359 43.076897 43.002352 42.922117
42.835950 42.744310 42.646929 42.544337 42.436239 42.323234 42.205010 42.082230
41.954569 41.822752 41.686443 41.546427 41.402358 41.255078 41.104233 40.950717
40.794167 40.635523 40.474416 40.311823 40.147367 39.982055 39.815503 39.648737
39.481366 39.314426 39.147516 38.981675 38.816488 38.652989 38.490748 38.330784
38.172652 38.017346 37.864407 37.714795 37.568036 37.425050 37.285347 37.149804
37.017912 36.890498 36.767040 36.648309 36.533771 36.424137 36.318864 36.218598
36.122792 36.032026 35.945749 35.864475 35.787651 35.715727 35.648149 35.585302
35.526639 35.472477 35.422278 35.376294 35.334002 35.295588 35.260545 35.228998
35.200459 35.174993 35.152136 35.131893 35.113827 35.097889 35.083671 35.071068
35.059710 35.049438 35.039918 35.030944 35.022222
35.400000 35.415858 35.432002 35.448768 35.466389 35.485247 35.505518 35.527627
35.551689 35.578169 35.607120 35.639040 35.673916 35.712278 35.754045 35.799772
35.849309 35.903232 35.961318 36.024163 36.091469 36.163844 36.240917 36.323304
36.410556 36.503297 36.601001 36.704291 36.812567 36.926448 37.045259 37.169614
37.298762 37.433310 37.572435 37.716731 37.865311 38.018751 38.176103 38.337927
38.503218 38.672517 38.844771 39.020502 39.198616 39.379616 39.562374 39.747376
39.933471 40.121126 40.309178 40.498080 40.686664 40.875371 41.063040 41.250100
41.435408 41.619385 41.800916 41.980412 42.156797 42.330475 42.500416 42.667017
42.829302 42.987662 43.141180 43.290237 43.433985 43.572792 43.705879 43.833602
43.955254 44.071173 44.180727 44.284231 44.381129 44.471711 44.555495 44.632741
44.703043 44.766624 44.823155 44.872819 44.915361 44.950920 44.979316 45.000643
45.014792 45.021811 45.021663 45.014347 44.999899 44.978269 44.949567 44.913694
44.870832 44.820840 44.763970 44.700038 44.629373 44.551751 44.467575 44.376586
44.279263 44.175316 44.065300 43.948898 43.826741 43.698491 43.564853 43.425471
43.281125 43.131442 42.977273 42.818236 42.655247 42.487914 42.317215 42.142751
41.965553 41.785217 41.602821 41.417952 41.231726 41.043725 40.855093 40.665400
40.475810 40.285884 40.096791 39.908080 39.720920 39.534841 39.351001 39.168915
38.989716 38.812902 38.639575 38.469214 38.302879 38.140031 37.981683 37.827276
37.677769 37.532588 37.392627 37.257299 37.127435 37.002431 36.883050 36.768680
36.660011 36.556423 36.458532 36.365717 36.278519 36.196314 36.119571 36.047669
35.981001 35.918957 35.861854 35.809095 35.760922 35.716756 35.676769 35.640401
35.607755 35.578294 35.552056 35.528532 35.507694 35.489066 35.472558 35.457732
35.444436 35.432271 35.421031 35.410361 35.400000
35.777778 35.796121 35.814812 35.834142 35.854514 35.876156 35.899520 35.924772
35.952406 35.982521 36.015651 36.051825 36.091614 36.134970 36.182496 36.234068
36.290315 36.351035 36.416878 36.487560 36.563748 36.645075 36.732222 36.824736
36.923304 37.027390 37.137685 37.253566 37.375722 37.503446 37.637423 37.776862
37.922437 38.073278 38.230047 38.391795 38.559169 38.731149 38.908361 39.089720
39.275832 39.465554 39.659468 39.856381 40.056855 40.259653 40.465316 40.672576
40.881956 41.092164 41.303705 41.515279 41.727376 41.938697 42.149718 42.359155
42.567473 42.773415 42.977434 43.178311 43.376493 43.570808 43.761696 43.948040
44.130273 44.307345 44.479680 44.646298 44.807614 44.962725 45.112031 45.254710
45.391145 45.520597 45.643427 45.758979 45.867590 45.968687 46.062576 46.148767
46.227529 46.298458 46.361780 46.417173 46.464818 46.504474 46.536273 46.560055
46.575900 46.583727 46.583563 46.575407 46.559231 46.535113 46.502974 46.462971
46.414971 46.359213 46.295516 46.224198 46.145034 46.058425 45.964103 45.862554
45.753472 45.637428 45.514084 45.384096 45.247101 45.103837 44.953920 44.798172
44.636190 44.468878 44.295820 44.117996 43.934981 43.747824 43.556095 43.360907
43.161822 42.960012 42.755031 42.548099 42.338762 42.128280 41.916188 41.703772
41.490559 41.277847 41.065150 40.853771 40.643207 40.434752 40.227887 40.023885
39.822206 39.624094 39.428987 39.238089 39.050818 38.868324 38.690006 38.516958
38.348556 38.185829 38.028135 37.876434 37.730065 37.589914 37.455307 37.327050
37.204459 37.088260 36.977762 36.873607 36.775103 36.682808 36.596033 36.515250
36.439778 36.370007 36.305265 36.245862 36.191140 36.141329 36.095793 36.054682
36.017385 35.983977 35.953876 35.927083 35.903050 35.881708 35.862546 35.845428
35.829886 35.815719 35.802505 35.789982 35.777778
36.155556 36.176622 36.198044 36.220236 36.243489 36.268274 36.294813 36.323629
36.354870 36.389106 36.426409 36.467392 36.512046 36.561019 36.614222 36.672334
36.735178 36.803461 36.876918 36.956276 37.041180 37.132372 37.229405 37.333031
37.442711 37.559202 37.681868 37.811470 37.947278 38.090046 38.238952 38.394742
38.556504 38.724970 38.899140 39.079730 39.265658 39.457618 39.654453 39.856835
40.063536 40.275204 40.490551 40.710199 40.932809 41.158978 41.387327 41.618429
41.850874 42.085217 42.320029 42.555845 42.791235 43.026715 43.260865 43.494189
43.725288 43.954656 44.180929 44.404593 44.624330 44.840620 45.052204 45.259555
45.461480 45.658447 45.849338 46.034612 46.213235 46.385651 46.550916 46.709458
46.860423 47.004218 47.140082 47.268396 47.388493 47.500722 47.604507 47.700164
47.787206 47.865905 47.935868 47.997318 48.049950 48.093936 48.129060 48.155436
48.172937 48.181619 48.181439 48.172396 48.154532 48.127788 48.092291 48.047924
47.994903 47.933052 47.862678 47.783552 47.696069 47.599954 47.495692 47.382967
47.262353 47.133498 46.997071 46.852686 46.701107 46.541922 46.375985 46.202868
46.023514 45.837478 45.645791 45.447998 45.245213 45.036970 44.824460 44.607210
44.386480 44.161790 43.934460 43.704003 43.471784 43.237311 43.001984 42.765299
42.528682 42.291615 42.055533 41.819903 41.586156 41.353740 41.124072 40.896578
40.672646 40.451679 40.235025 40.022064 39.814092 39.610464 39.412418 39.219284
39.032231 38.850567 38.675387 38.505978 38.343352 38.186782 38.037193 37.893843
37.757571 37.627623 37.504748 37.388188 37.278597 37.175218 37.078614 36.988029
36.903937 36.825590 36.753371 36.686547 36.625411 36.569250 36.518269 36.471781
36.429905 36.391984 36.358055 36.327494 36.300261 36.275770 36.253906 36.234126
36.216243 36.199763 36.184429 36.169801 36.155556
36.533333 36.557353 36.581797 36.607020 36.633512 36.661553 36.691692 36.724133
36.759477 36.797847 36.839892 36.885651 36.935814 36.990332 37.049932 37.114473
37.184714 37.260416 37.342366 37.430228 37.524806 37.625665 37.733624 37.848145
37.970056 38.098717 38.234955 38.378030 38.528767 38.686322 38.851510 39.023390
39.202763 39.388589 39.581652 39.780820 39.986854 40.198535 40.416600 40.639749
40.868692 41.102057 41.340527 41.582666 41.829130 42.078432 42.331200 42.585908
42.843159 43.101402 43.361217 43.621040 43.881433 44.140836 44.399792 44.656760
44.912272 45.164817 45.414917 45.661109 45.903907 46.141905 46.375613 46.603694
46.826651 47.043229 47.253923 47.457565 47.654641 47.844075 48.026342 48.200464
48.366895 48.524759 48.674486 48.815303 48.947608 49.070729 49.185029 49.289935
49.385768 49.472054 49.549065 49.616423 49.674347 49.722554 49.761204 49.790110
49.809366 49.818881 49.818685 49.808778 49.789126 49.759821 49.720766 49.672144
49.613797 49.546003 49.468544 49.381794 49.285481 49.180076 49.065257 48.941596
48.808728 48.667324 48.516982 48.358476 48.191375 48.016553 47.833555 47.643356
47.445484 47.241011 47.029451 46.811972 46.588077 46.359022 46.124305 45.885260
45.641380 45.394070 45.142816 44.889084 44.632351 44.374130 44.113890 43.853176
43.591443 43.330257 43.069057 42.809411 42.550740 42.294602 42.040395 41.789651
41.541745 41.298172 41.058277 40.823506 40.593177 40.368675 40.149290 39.936336
39.729077 39.528746 39.334584 39.147738 38.967428 38.794708 38.628780 38.470604
38.319366 38.175930 38.039471 37.910753 37.788948 37.674718 37.567236 37.467064
37.373383 37.286652 37.206067 37.131988 37.063627 37.001251 36.944094 36.892328
36.845217 36.802843 36.764505 36.730195 36.699252 36.671586 36.646580 36.624062
36.603466 36.584543 36.566783 36.549864 36.533333
36.911111 36.938364 36.966044 36.994649 37.024529 37.056250 37.090081 37.126646
37.166129 37.209210 37.255983 37.307174 37.362786 37.423588 37.489482 37.561276
37.638770 37.722802 37.813069 37.910432 38.014479 38.126091 38.244746 38.371335
38.505227 38.647318 38.796863 38.954757 39.120146 39.293917 39.475104 39.664583
39.861280 40.066051 40.277721 40.497121 40.722979 40.956099 41.195116 41.440806
41.691720 41.948602 42.209930 42.476417 42.746477 43.020792 43.297726 43.577933
43.859741 44.143775 44.428344 44.714050 44.999197 45.284367 45.567876 45.850290
46.129953 46.407420 46.681077 46.951472 47.217049 47.478349 47.733887 47.984202
48.227889 48.465481 48.695668 48.918974 49.134189 49.341827 49.540782 49.731554
49.913145 50.086032 50.249329 50.403484 50.547722 50.682456 50.807019 50.921783
51.026187 51.120553 51.204428 51.278077 51.341150 51.393850 51.435930 51.467526
51.488490 51.498892 51.498681 51.487855 51.466465 51.434437 51.391920 51.338772
51.275242 51.201123 51.116764 51.021897 50.916974 50.801672 50.676548 50.541230
50.396383 50.241592 50.077631 49.904050 49.721734 49.530205 49.330458 49.121994
48.905916 48.681711 48.450586 48.212019 47.967317 47.715949 47.459317 47.196884
46.930135 46.658529 46.383624 46.104871 45.823886 45.540115 45.255217 44.968625
44.682030 44.394847 44.108779 43.823225 43.539883 43.258127 42.979636 42.703760
42.432142 42.164102 41.901236 41.642831 41.390423 41.143269 40.902830 40.668332
40.441156 40.220499 40.007649 39.801778 39.604077 39.413694 39.231720 39.057283
38.891368 38.733090 38.583326 38.441183 38.307428 38.181165 38.063053 37.952200
37.849153 37.753032 37.664277 37.582022 37.506603 37.437175 37.373971 37.316176
37.263921 37.216425 37.173723 37.135074 37.100420 37.069065 37.040863 37.015169
36.991751 36.970020 36.949665 36.930158 36.911111
37.288889 37.319638 37.350891 37.383071 37.416755 37.452283 37.490299 37.531054
37.575253 37.623053 37.675215 37.731796 37.793606 37.860599 37.933627 38.012538
38.098219 38.190406 38.290016 38.396671 38.511309 38.633435 38.764002 38.902397
39.049582 39.204820 39.369076 39.541495 39.723033 39.912715 40.111486 40.318254
40.533945 40.757352 40.989377 41.228703 41.476206 41.730464 41.992320 42.260257
42.535084 42.815198 43.101372 43.391929 43.687606 43.986664 44.289807 44.595248
44.903659 45.213223 45.524585 45.835913 46.147827 46.458500 46.768534 47.076123
47.381854 47.683962 47.983024 48.277330 48.567450 48.851747 49.130786 49.403016
49.668998 49.927275 50.178407 50.421041 50.655729 50.881230 51.098084 51.305169
51.503004 51.690586 51.868411 52.035594 52.192598 52.338655 52.474191 52.598552
52.712113 52.814338 52.905543 52.985303 53.053873 53.110935 53.156674 53.190881
53.213668 53.224930 53.224703 53.212987 53.189743 53.155073 53.108864 53.051323
52.982262 52.901998 52.810273 52.707511 52.593392 52.468453 52.332315 52.185631
52.027972 51.860107 51.681568 51.493240 51.294625 51.086727 50.869021 50.642631
50.407015 50.163414 49.911273 49.651946 49.384872 49.111509 48.831292 48.545777
48.254395 47.958787 47.658380 47.354889 47.047734 46.738685 46.427155 46.114953
45.801478 45.488563 45.175587 44.864389 44.554325 44.247219 43.942401 43.641666
43.344312 43.052087 42.764257 42.482510 42.206076 41.936569 41.673185 41.417453
41.168534 40.927865 40.694574 40.469995 40.253229 40.045501 39.845890 39.655508
39.473412 39.300601 39.136120 38.980848 38.833823 38.695808 38.565840 38.444562
38.331020 38.225739 38.127776 38.037545 37.954122 37.877807 37.807702 37.744000
37.685836 37.633294 37.585552 37.542591 37.503634 37.468565 37.436657 37.407702
37.381031 37.356345 37.333040 37.310734 37.288889
37.666667 37.701230 37.736297 37.772450 37.810106 37.849924 37.892226 37.937740
37.986692 38.039872 38.097400 38.160123 38.228054 38.302088 38.382124 38.469099
38.562795 38.664184 38.772927 38.890022 39.015006 39.148897 39.291104 39.442657
39.602839 39.772679 39.951334 40.139830 40.337192 40.544437 40.760461 40.986263
41.220614 41.464490 41.716540 41.977708 42.246530 42.523917 42.808294 43.100535
43.398967 43.704425 44.015148 44.331931 44.652938 44.978924 45.307995 45.640870
45.975611 46.312904 46.650786 46.989915 47.328323 47.666643 48.002924 48.337779
48.669292 48.998064 49.322229 49.642385 49.956734 50.265868 50.568079 50.863956
51.151888 51.432465 51.704186 51.967635 52.221431 52.466153 52.700540 52.925159
53.138878 53.342241 53.534246 53.715406 53.884848 54.043047 54.189255 54.323899
54.446355 54.556994 54.655309 54.741611 54.815506 54.877235 54.926518 54.963518
54.988069 55.000251 55.000010 54.987343 54.962304 54.924811 54.875026 54.812786
54.738367 54.651527 54.552657 54.441444 54.318394 54.183131 54.036281 53.877412
53.707271 53.525380 53.332613 53.128452 52.913900 52.688410 52.453112 52.207439
51.952650 51.688165 51.415366 51.133665 50.844564 50.547473 50.244003 49.933562
49.617863 49.296312 48.970707 48.640452 48.307417 47.970997 47.633115 47.293157
46.953079 46.612249 46.272640 45.933598 45.597088 45.262431 44.931568 44.603786
44.280987 43.962420 43.649929 43.342724 43.042576 42.748656 42.462650 42.183688
41.913360 41.650757 41.397364 41.152239 40.916751 40.689929 40.473023 40.265037
40.067099 39.878194 39.699322 39.529459 39.369478 39.218348 39.076815 38.943853
38.820080 38.704479 38.597545 38.498277 38.407049 38.322884 38.246038 38.175564
38.111602 38.053246 38.000524 37.952574 37.909318 37.869946 37.834277 37.801560
37.771516 37.743458 37.717015 37.691571 37.666667
38.044444 38.083117 38.122375 38.162716 38.204809 38.249055 38.296200 38.346542
38.400899 38.459460 38.523105 38.591912 38.666815 38.747775 38.835773 38.930647
39.033420 39.143801 39.262845 39.390132 39.526738 39.672112 39.827345 39.991748
40.166420 40.350534 40.545189 40.749419 40.964312 41.188767 41.423853 41.668333
41.923253 42.187242 42.461316 42.743977 43.036204 43.336378 43.645438 43.961653
44.285919 44.616403 44.953956 45.296659 45.645317 45.997936 46.355282 46.715304
47.078728 47.443468 47.810214 48.176863 48.544079 48.909763 49.274556 49.636386
49.995879 50.351010 50.702396 51.048081 51.388677 51.722312 52.049598 52.368767
52.680431 52.982934 53.276892 53.560772 53.835186 54.098735 54.352021 54.593782
54.824605 55.043365 55.250624 55.445395 55.628206 55.798205 55.955875 56.100496