# vtk DataFile Version 3.0
Steady-state temperature (Jacobi)
ASCII
DATASET STRUCTURED_POINTS
DIMENSIONS 181 181 1
ORIGIN 0.0 0.0 0.0
SPACING 0.05 0.05 1.0
POINT_DATA 32761
SCALARS Temperature float 1
LOOKUP_TABLE default
32.000000 32.000000 32.000000 32.000000 32.000000 32.000000 32.000000 32.000000
32.000000 32.000000 32.000000 32.000000 32.000000 32.000000 32.000000 32.000000
32.000000 32.000000 32.000000 32.000000 32.000000 32.000000 32.000000 32.000000
32.000000 32.000000 32.000000 32.000000 32.000000 32.000000 32.000000 32.000000
32.000000 32.000000 32.000000 32.000000 32.000000 32.000000 32.000000 32.000000
32.000000 32.000000 32.000000 32.000000 32.000000 32.000000 32.000000 32.000000
32.000000 32.000000 32.000000 32.000000 32.000000 32.000000 32.000000 32.000000
32.000000 32.000000 32.000000 32.000000 32.000000 32.000000 32.000000 32.000000
32.000000 32.000000 32.000000 32.000000 32.000000 32.000000 32.000000 32.000000
32.000000 32.000000 32.000000 32.000000 32.000000 32.000000 32.000000 32.000000
32.000000 32.000000 32.000000 32.000000 32.000000 32.000000 32.000000 32.000000
32.000000 32.000000 32.000000 32.000000 32.000000 32.000000 32.000000 32.000000
32.000000 32.000000 32.000000 32.000000 32.000000 32.000000 32.000000 32.000000
32.000000 32.000000 32.000000 32.000000 32.000000 32.000000 32.000000 32.000000
32.000000 32.000000 32.000000 32.000000 32.000000 32.000000 32.000000 32.000000
32.000000 32.000000 32.000000 32.000000 32.000000 32.000000 32.000000 32.000000
32.000000 32.000000 32.000000 32.000000 32.000000 32.000000 32.000000 32.000000
32.000000 32.000000 32.000000 32.000000 32.000000 32.000000 32.000000 32.000000
32.000000 32.000000 32.000000 32.000000 32.000000 32.000000 32.000000 32.000000
32.000000 32.000000 32.000000 32.000000 32.000000 32.000000 32.000000 32.000000
32.000000 32.000000 32.000000 32.000000 32.000000 32.000000 32.000000 32.000000
32.000000 32.000000 32.000000 32.000000 32.000000 32.000000 32.000000 32.000000
32.000000 32.000000 32.000000 32.000000 32.000000
32.377778 32.390555 32.403356 32.416206 32.429126 32.442145 32.455278 32.468557
32.481995 32.495624 32.509453 32.523517 32.537817 32.552393 32.567240 32.582398
32.597857 32.613659 32.629787 32.646284 32.663128 32.680360 32.697954 32.715951
32.734318 32.753096 32.772246 32.791807 32.811736 32.832069 32.852759 32.873839
32.895257 32.917045 32.939145 32.961587 32.984308 33.007336 33.030603 33.054136
33.077863 33.101808 33.125895 33.150146 33.174483 33.198927 33.223396 33.247908
33.272382 33.296833 33.321180 33.345437 33.369522 33.393447 33.417132 33.440589
33.463738 33.486592 33.509071 33.531189 33.552870 33.574125 33.594884 33.615158
33.634880 33.654061 33.672638 33.690624 33.707960 33.724658 33.740666 33.755994
33.770595 33.784482 33.797610 33.809992 33.821590 33.832415 33.842435 33.851659
33.860061 33.867649 33.874402 33.880326 33.885405 33.889644 33.893031 33.895571
33.897255 33.898086 33.898062 33.897182 33.895450 33.892861 33.889425 33.885137
33.880009 33.874035 33.867232 33.859593 33.851140 33.841864 33.831792 33.820914
33.809262 33.796826 33.783643 33.769701 33.755044 33.739659 33.723595 33.706839
33.689446 33.671402 33.652767 33.633528 33.613748 33.593416 33.572600 33.551288
33.529552 33.507379 33.484846 33.461941 33.438741 33.415236 33.391505 33.367537
33.343412 33.319118 33.294738 33.270258 33.245760 33.221228 33.196745 33.172294
33.147955 33.123709 33.099635 33.075711 33.052013 33.028518 33.005299 32.982329
32.959677 32.937315 32.915308 32.893625 32.872326 32.851378 32.830836 32.810664
32.790914 32.771548 32.752610 32.734062 32.715944 32.698215 32.680908 32.663983
32.647468 32.631322 32.615566 32.600159 32.585117 32.570400 32.556019 32.541932
32.528146 32.514620 32.501357 32.488316 32.475494 32.462855 32.450389 32.438062
32.425861 32.413753 32.401721 32.389737 32.377778
32.755556 32.781129 32.806752 32.832467 32.858332 32.884381 32.910676 32.937244
32.964152 32.991417 33.019111 33.047242 33.075885 33.105037 33.134777 33.165092
33.196061 33.227661 33.259973 33.292961 33.326708 33.361167 33.396419 33.432406
33.469209 33.506757 33.545129 33.584243 33.624177 33.664836 33.706295 33.748449
33.791367 33.834937 33.879222 33.924100 33.969630 34.015681 34.062307 34.109367
34.156914 34.204799 34.253067 34.301566 34.350336 34.399219 34.448253 34.497274
34.546317 34.595217 34.644005 34.692515 34.740777 34.788624 34.836084 34.882995
34.929380 34.975082 35.020125 35.064355 35.107796 35.150301 35.191894 35.232435
35.271948 35.310302 35.347521 35.383485 35.418216 35.451603 35.483671 35.514318
35.543569 35.571332 35.597631 35.622385 35.645618 35.667259 35.687329 35.705770
35.722599 35.737768 35.751293 35.763136 35.773308 35.781782 35.788567 35.793643
35.797017 35.798679 35.798630 35.796872 35.793401 35.788227 35.781345 35.772773
35.762502 35.750560 35.736934 35.721664 35.704732 35.686188 35.666013 35.644266
35.620926 35.596063 35.569655 35.541781 35.512419 35.481659 35.449477 35.415975
35.381129 35.345050 35.307715 35.269245 35.229616 35.188960 35.147253 35.104634
35.061082 35.016742 34.971593 34.925787 34.879301 34.832294 34.784742 34.736809
34.688467 34.639883 34.591028 34.542071 34.492979 34.443919 34.394858 34.345959
34.297185 34.248698 34.200454 34.152612 34.105123 34.058139 34.011609 33.965675
33.920283 33.875566 33.831466 33.788107 33.745425 33.703537 33.662372 33.622038
33.582462 33.543738 33.505790 33.468703 33.432397 33.396946 33.362269 33.328426
33.295336 33.263049 33.231481 33.200672 33.170538 33.141107 33.112297 33.084125
33.056509 33.029458 33.002892 32.976807 32.951129 32.925845 32.900882 32.876220
32.851790 32.827563 32.803477 32.779493 32.755556
33.133333 33.171742 33.210219 33.248847 33.287683 33.326817 33.366294 33.406212
33.446605 33.487576 33.529145 33.571422 33.614411 33.658228 33.702861 33.748428
33.794903 33.842407 33.890894 33.940489 33.991129 34.042937 34.095834 34.149943
34.205167 34.261625 34.319204 34.378020 34.437943 34.499083 34.561296 34.624686
34.689091 34.754611 34.821068 34.888557 34.956884 35.026137 35.096110 35.166883
35.238240 35.310253 35.382694 35.455630 35.528825 35.602339 35.675930 35.749652
35.823258 35.896796 35.970019 36.042970 36.115402 36.187354 36.258582 36.329123
36.398736 36.467458 36.535054 36.601559 36.666749 36.730658 36.793072 36.854024
36.913314 36.970976 37.026821 37.080885 37.132994 37.183182 37.231292 37.277359
37.321240 37.362969 37.402419 37.439625 37.474474 37.506998 37.537102 37.564814
37.590056 37.612851 37.633136 37.650931 37.666188 37.678921 37.689096 37.696724
37.701784 37.704281 37.704209 37.701566 37.696361 37.688588 37.678266 37.665386
37.649982 37.632037 37.611601 37.588654 37.563259 37.535391 37.505130 37.472447
37.437438 37.400070 37.360456 37.318561 37.274513 37.228277 37.179996 37.129636
37.077355 37.023117 36.967098 36.909263 36.849800 36.788674 36.726089 36.662011
36.596654 36.529984 36.462228 36.393350 36.323586 36.252901 36.181535 36.109453
36.036902 35.963840 35.890518 35.816893 35.743215 35.669435 35.595803 35.522265
35.449065 35.376145 35.303742 35.231792 35.160523 35.089865 35.020036 34.950957
34.882838 34.815591 34.749412 34.684208 34.620159 34.557167 34.495398 34.434744
34.375358 34.317127 34.260186 34.204419 34.149943 34.096638 34.044604 33.993720
33.944068 33.895525 33.848156 33.801837 33.756618 33.712375 33.669141 33.626793
33.585349 33.544690 33.504817 33.465616 33.427073 33.389078 33.351605 33.314549
33.277872 33.241476 33.205308 33.169282 33.133333
33.511111 33.562408 33.613806 33.665390 33.717273 33.769525 33.822272 33.875566
33.929543 33.984237 34.039793 34.096225 34.153686 34.212169 34.271832 34.332649
34.394780 34.458178 34.523006 34.589193 34.656903 34.726043 34.796777 34.868987
34.942835 35.018181 35.095183 35.173678 35.253817 35.335416 35.418621 35.503225
35.589365 35.676814 35.765702 35.855781 35.947172 36.039609 36.133204 36.227674
36.323120 36.419246 36.516144 36.613506 36.711413 36.809547 36.907983 37.006395
37.104849 37.203016 37.300957 37.398339 37.495219 37.591266 37.686533 37.780693
37.873795 37.965523 38.055923 38.144689 38.231866 38.317160 38.400618 38.481962
38.561237 38.638184 38.712848 38.784987 38.854649 38.921612 38.985924 39.047383
39.106035 39.161702 39.214429 39.264057 39.310630 39.354011 39.394240 39.431201
39.464930 39.495330 39.522435 39.546166 39.566550 39.583530 39.597125 39.607297
39.614058 39.617388 39.617291 39.613768 39.606815 39.596449 39.582659 39.565483
39.544901 39.520971 39.493666 39.463063 39.429130 39.391962 39.351524 39.307932
39.261145 39.211301 39.158355 39.102468 39.043592 38.981908 38.917369 38.850178
38.780285 38.707915 38.633020 38.555842 38.476336 38.394762 38.311075 38.225555
38.138155 38.049171 37.958557 37.866621 37.773318 37.678965 37.583516 37.487296
37.390256 37.292727 37.194654 37.096372 36.997820 36.899332 36.800840 36.702675
36.604762 36.507423 36.410576 36.314533 36.219204 36.124889 36.031486 35.939283
35.848168 35.758413 35.669896 35.582869 35.497204 35.413133 35.330518 35.249571
35.170147 35.092435 35.016284 34.941861 34.869009 34.797873 34.728292 34.660386
34.593993 34.529212 34.465875 34.404062 34.343604 34.284558 34.226759 34.170239
34.114839 34.060570 34.007275 33.954947 33.903435 33.852713 33.802638 33.753164
33.704158 33.655558 33.607241 33.559129 33.511111
33.888889 33.953154 34.017536 34.082169 34.147150 34.212630 34.278685 34.345480
34.413069 34.481627 34.551186 34.621931 34.693870 34.767195 34.841887 34.918145
34.995924 35.075426 35.156578 35.239584 35.324344 35.411061 35.499605 35.590179
35.682624 35.777137 35.873531 35.971999 36.072325 36.174693 36.278859 36.385001
36.492847 36.602563 36.713854 36.826874 36.941304 37.057286 37.174479 37.293015
37.412531 37.533147 37.654484 37.776651 37.899255 38.022392 38.145660 38.269144
38.392435 38.515611 38.638257 38.760445 38.881760 39.002268 39.121559 39.239693
39.356269 39.471344 39.584530 39.695880 39.805022 39.912010 40.016488 40.118511
40.217743 40.314241 40.407692 40.498152 40.585334 40.669294 40.749770 40.826821
40.900208 40.969990 41.035956 41.098161 41.156422 41.210792 41.261112 41.307432
41.349618 41.387713 41.421611 41.451348 41.476840 41.498116 41.515117 41.527862
41.536316 41.540488 41.540368 41.535955 41.527259 41.514272 41.497028 41.475508
41.449770 41.419785 41.385637 41.347289 41.304848 41.258270 41.207690 41.153056
41.094528 41.032052 40.965814 40.895756 40.822090 40.744759 40.663999 40.579753
40.492285 40.401536 40.307796 40.211009 40.111488 40.009178 39.904415 39.797144
39.687724 39.576100 39.462648 39.347313 39.230486 39.112111 38.992592 38.871869
38.750354 38.627983 38.505172 38.381852 38.258441 38.134860 38.011524 37.888347
37.765737 37.643598 37.522326 37.401814 37.282446 37.164103 37.047152 36.931462
36.817380 36.704764 36.593939 36.484751 36.377501 36.272025 36.168598 36.067046
35.967617 35.870127 35.774800 35.681441 35.590246 35.501015 35.413915 35.328742
35.245634 35.164384 35.085101 35.007579 34.931899 34.857855 34.785499 34.714630
34.645274 34.577233 34.510508 34.444908 34.380410 34.316832 34.254126 34.192120
34.130746 34.069844 34.009324 33.949043 33.888889
34.266667 34.343988 34.421461 34.499215 34.577421 34.656184 34.735693 34.816029
34.897394 34.979843 35.063592 35.148665 35.235288 35.323457 35.413407 35.505100
35.598776 35.694367 35.792115 35.891918 35.994021 36.098286 36.204957 36.313861
36.425238 36.538882 36.655027 36.773430 36.894319 37.017418 37.142942 37.270585
37.400550 37.532498 37.666621 37.802550 37.940461 38.079959 38.221206 38.363781
38.507833 38.652916 38.799166 38.946119 39.093896 39.242019 39.390597 39.539139
39.687743 39.835913 39.983736 40.130715 40.276928 40.421881 40.565646 40.707737
40.848221 40.986624 41.123011 41.256923 41.388425 41.517078 41.642947 41.765616
41.885152 42.001164 42.113721 42.222461 42.327453 42.428367 42.525271 42.617867
42.706223 42.790073 42.869484 42.944220 43.014348 43.079662 43.140224 43.195861
43.246629 43.292384 43.333174 43.368886 43.399559 43.425109 43.445565 43.460870
43.471041 43.476053 43.475909 43.470609 43.460149 43.444554 43.423808 43.397965
43.366997 43.330988 43.289898 43.243841 43.192768 43.136822 43.075947 43.010317
42.939870 42.864810 42.785072 42.700892 42.612202 42.519269 42.422025 42.320770
42.215433 42.106347 41.993444 41.877085 41.757203 41.634190 41.507979 41.378987
41.247151 41.112912 40.976205 40.837492 40.696706 40.554328 40.410288 40.265078
40.118624 39.971426 39.823406 39.675064 39.526315 39.377658 39.228999 39.080830
38.933044 38.786126 38.639954 38.494998 38.351124 38.208783 38.067825 37.928681
37.791186 37.655745 37.522181 37.390870 37.261620 37.134780 37.010143 36.888027
36.768215 36.650990 36.536126 36.423872 36.313994 36.206707 36.101770 35.999365
35.899244 35.801556 35.706052 35.612846 35.521689 35.432661 35.345517 35.260304
35.176781 35.094964 35.014618 34.935731 34.858077 34.781613 34.706126 34.631545
34.557672 34.484410 34.411576 34.339050 34.266667
34.644444 34.734939 34.825599 34.916612 35.008117 35.100325 35.193345 35.287407
35.382589 35.479139 35.577101 35.676735 35.778054 35.881328 35.986531 36.093944
36.203504 36.315495 36.429816 36.546754 36.666169 36.788346 36.913105 37.040729
37.170998 37.304188 37.440038 37.578816 37.720223 37.864514 38.011352 38.160980
38.313022 38.467706 38.624621 38.783981 38.945338 39.108890 39.274159 39.441326
39.609884 39.779997 39.951134 40.123443 40.296374 40.470056 40.643926 40.818098
40.991999 41.165732 41.338717 41.511047 41.682142 41.852087 42.020309 42.186887
42.351258 42.513498 42.673061 42.830021 42.983853 43.134630 43.281854 43.425600
43.565397 43.701323 43.832939 43.960324 44.083076 44.201274 44.314552 44.422990
44.526259 44.624440 44.717239 44.804736 44.886674 44.963129 45.033882 45.099001
45.158303 45.211850 45.259492 45.301282 45.337106 45.367002 45.390891 45.408799
45.420678 45.426542 45.426374 45.420175 45.407960 45.389715 45.365488 45.335251
45.299085 45.256949 45.208958 45.155059 45.095401 45.029922 44.958806 44.881984
44.799673 44.711800 44.618620 44.520055 44.416397 44.307566 44.193893 44.075296
43.952144 43.824355 43.692336 43.556006 43.415806 43.271659 43.124036 42.972864
42.818644 42.661302 42.501367 42.338764 42.174043 42.007129 41.838588 41.668341
41.496968 41.324382 41.151168 40.977234 40.803166 40.628859 40.454896 40.281160
40.108222 39.935953 39.764909 39.594944 39.426595 39.259701 39.094773 38.931633
38.770766 38.611975 38.455716 38.301775 38.150573 38.001881 37.856084 37.712939
37.572794 37.435391 37.301041 37.169474 37.040962 36.915226 36.792497 36.672490
36.555397 36.440928 36.329235 36.220028 36.113418 36.009117 35.907198 35.807376
35.709687 35.613854 35.519877 35.427487 35.336650 35.247110 35.158799 35.071476
34.985043 34.899277 34.814049 34.729157 34.644444
35.022222 35.126012 35.230006 35.334377 35.439356 35.545084 35.651816 35.759659
35.868887 35.979573 36.092006 36.206221 36.322522 36.440902 36.561677 36.684799
36.810590 36.938958 37.070229 37.204269 37.341404 37.481452 37.624738 37.771036
37.920663 38.073348 38.229400 38.388501 38.550949 38.716382 38.885083 39.056645
39.231338 39.408711 39.589016 39.771762 39.957183 40.144750 40.334676 40.526400
40.720115 40.915228 41.111914 41.309554 41.508303 41.707525 41.907354 42.107140
42.307004 42.506283 42.705088 42.902752 43.099375 43.294295 43.487602 43.678646
43.867512 44.053564 44.236884 44.416860 44.593573 44.766437 44.935535 45.100312
45.260853 45.416641 45.567761 45.713734 45.854650 45.990071 46.120087 46.244303
46.362810 46.475254 46.581727 46.681917 46.775913 46.863445 46.944596 47.019139
47.087147 47.148434 47.203065 47.250891 47.291965 47.326177 47.353565 47.374057
47.387677 47.394387 47.394196 47.387104 47.373102 47.352226 47.324452 47.289852
47.248388 47.200168 47.145140 47.083452 47.015038 46.940086 46.858520 46.770569
46.676149 46.575529 46.468622 46.355739 46.236789 46.112126 45.981658 45.845783
45.704409 45.557977 45.406396 45.250148 45.089146 44.923911 44.754359 44.581045
44.403888 44.223476 44.039730 43.853265 43.663999 43.472572 43.278900 43.083638
42.886696 42.688740 42.489674 42.290167 42.090111 41.890175 41.690237 41.490957
41.292199 41.094607 40.898028 40.703087 40.509612 40.318202 40.128666 39.941574
39.756713 39.574621 39.395066 39.218548 39.044815 38.874328 38.706818 38.542703
38.381697 38.224175 38.069839 37.919017 37.771398 37.627268 37.486304 37.348747
37.214268 37.083062 36.954797 36.829622 36.707207 36.587655 36.470638 36.356217
36.244071 36.134217 36.026344 35.920430 35.816175 35.713519 35.612177 35.512053
35.412881 35.314530 35.216754 35.119392 35.022222
35.400000 35.517238 35.634690 35.752601 35.871151 35.990613 36.111130 36.232998
36.356322 36.481420 36.608354 36.737459 36.868752 37.002583 37.138923 37.278131
37.420132 37.565289 37.713478 37.865066 38.019877 38.178277 38.340039 38.505525
38.674456 38.847184 39.023379 39.203383 39.386814 39.573998 39.764504 39.958642
40.155930 40.356660 40.560303 40.767129 40.976567 41.188863 41.403406 41.620420
41.839257 42.060118 42.282322 42.506051 42.730597 42.956118 43.181889 43.408050
43.633859 43.859442 44.084050 44.307795 44.529929 44.750552 44.968925 45.185142
45.398477 45.609019 45.816067 46.019706 46.219262 46.414823 46.605748 46.792127
46.973359 47.149535 47.320098 47.485142 47.644155 47.797236 47.943918 48.084302
48.217970 48.345025 48.465094 48.578279 48.684257 48.783123 48.874602 48.958782
49.035433 49.104634 49.166199 49.220194 49.266476 49.305097 49.335956 49.359089
49.374434 49.382009 49.381796 49.373792 49.358018 49.334455 49.303164 49.264108
49.217388 49.162951 49.100941 49.031291 48.954185 48.869545 48.777602 48.678265
48.571812 48.458145 48.337589 48.210042 48.075877 47.934990 47.787802 47.634210
47.474684 47.309123 47.138044 46.961349 46.779602 46.592707 46.401272 46.205205
46.005151 45.801022 45.593497 45.382489 45.168705 44.952058 44.733276 44.512267
44.289776 44.065704 43.840803 43.614964 43.388941 43.162610 42.936721 42.711132
42.486580 42.262905 42.040824 41.820157 41.601594 41.384933 41.170834 40.959071
40.750269 40.544180 40.341387 40.141619 39.945418 39.752491 39.563332 39.377630
39.195831 39.017606 38.843350 38.672720 38.506061 38.343015 38.183878 38.028283
37.876473 37.728076 37.583285 37.441725 37.303538 37.168352 37.036257 36.906888
36.780287 36.656097 36.534315 36.414594 36.296887 36.180865 36.066437 35.953292
35.841302 35.730176 35.619749 35.509758 35.400000
35.777778 35.908618 36.039714 36.171288 36.303629 36.436918 36.571474 36.707436
36.845146 36.984700 37.126461 37.270476 37.417126 37.566408 37.718716 37.873994
38.032646 38.194561 38.360146 38.529239 38.702245 38.878944 39.059739 39.244353
39.433181 39.625888 39.822858 40.023698 40.228778 40.437648 40.650661 40.867310
41.087927 41.311954 41.539698 41.770550 42.004794 42.241773 42.481745 42.724009
42.968798 43.215374 43.463943 43.713734 43.964929 44.216730 44.469299 44.721818
44.974427 45.226298 45.477555 45.727365 45.975838 46.222148 46.466394 46.707761
46.946345 47.181350 47.412869 47.640135 47.863240 48.081453 48.294868 48.502795
48.705332 48.901834 49.092405 49.276448 49.454072 49.624734 49.788544 49.945013
50.094253 50.235830 50.369856 50.495949 50.614219 50.724336 50.826404 50.920145
51.005654 51.082701 51.151369 51.211478 51.263094 51.306084 51.340497 51.366244
51.383356 51.391789 51.391553 51.382646 51.365060 51.338836 51.303945 51.260474
51.208373 51.147776 51.078615 51.001070 50.915058 50.820809 50.718226 50.607588
50.488791 50.362165 50.227599 50.085477 49.935685 49.778659 49.614288 49.443061
49.264867 49.080252 48.889107 48.692031 48.488921 48.280424 48.066442 47.847668
47.624010 47.396202 47.164152 46.928632 46.689550 46.447705 46.203005 45.956269
45.707398 45.457226 45.205644 44.953491 44.700644 44.447940 44.195238 43.943366
43.692163 43.442437 43.194005 42.947649 42.703163 42.461297 42.221818 41.985439
41.751901 41.521875 41.295075 41.072126 40.852717 40.637422 40.425908 40.218695
40.015430 39.816577 39.621764 39.431401 39.245099 39.063211 38.885336 38.711770
38.542103 38.376573 38.214768 38.056869 37.902462 37.751673 37.604090 37.459788
37.318361 37.179831 37.043805 36.910252 36.778796 36.649359 36.521583 36.395344
36.270308 36.146308 36.023036 35.900285 35.777778
36.155556 36.300183 36.445075 36.590535 36.736785 36.884162 37.032845 37.183199
37.335356 37.489705 37.646327 37.805633 37.967651 38.132806 38.301071 38.472884
38.648158 38.827339 39.010278 39.197426 39.388572 39.584163 39.783927 39.988304
40.196959 40.410322 40.627993 40.850388 41.077043 41.308356 41.543803 41.783758
42.027636 42.275788 42.527571 42.783309 43.042305 43.304853 43.570207 43.838633
44.109337 44.382557 44.657460 44.934255 45.212078 45.491109 45.770458 46.050285
46.329680 46.608783 46.886676 47.163481 47.438281 47.711185 47.981287 48.248686
48.512495 48.772808 49.028767 49.280464 49.527077 49.768699 50.004552 50.234733
50.458512 50.675993 50.886497 51.090136 51.286287 51.475068 51.655915 51.828949
51.993666 52.150190 52.298074 52.437443 52.567909 52.689590 52.802157 52.905719
53.000003 53.085106 53.160808 53.227192 53.284087 53.331559 53.369488 53.397919
53.416779 53.426091 53.425832 53.416001 53.396622 53.367670 53.329217 53.281218
53.223793 53.156874 53.080632 52.994984 52.900149 52.796029 52.682898 52.560646
52.429603 52.289649 52.141173 51.984051 51.818730 51.645085 51.463623 51.274220
51.077445 50.873178 50.662045 50.443933 50.219526 49.988718 49.752244 49.510005
49.262786 49.010492 48.753951 48.493071 48.228716 47.960792 47.690193 47.416820
47.141585 46.864382 46.586134 46.306720 46.027066 45.747035 45.467544 45.188435
44.910608 44.633884 44.359136 44.086158 43.815793 43.547806 43.283000 43.021112
42.762900 42.508072 42.257336 42.010370 41.767831 41.529367 41.295580 41.066093
40.841446 40.621240 40.405956 40.195175 39.989314 39.787939 39.591405 39.399265
39.211811 39.028590 38.849830 38.675075 38.504492 38.337627 38.174585 38.014918
37.858674 37.705414 37.555130 37.407397 37.262154 37.118994 36.977804 36.838202
36.700026 36.562920 36.426676 36.290972 36.155556
36.533333 36.691931 36.850841 37.010331 37.170753 37.332329 37.495443 37.660268
37.827218 37.996411 38.168286 38.342906 38.520728 38.701755 38.886461 39.074786
39.267213 39.463618 39.664489 39.869635 40.079546 40.293962 40.513366 40.737432
40.966632 41.200571 41.439706 41.683573 41.932611 42.186286 42.445016 42.708199
42.976226 43.248433 43.525180 43.805741 44.090447 44.378511 44.670235 44.964778
45.262407 45.562237 45.864503 46.168278 46.473767 46.780010 47.087184 47.394307
47.701530 48.007856 48.313415 48.617206 48.919344 49.218831 49.515772 49.809185
50.099167 50.384764 50.666068 50.942161 51.213137 51.478122 51.737214 51.989589
52.235353 52.473738 52.704859 52.928006 53.143305 53.350109 53.548548 53.738043
53.918729 54.090090 54.252264 54.404799 54.547830 54.680970 54.804346 54.917633
55.020946 55.114021 55.196956 55.269544 55.331867 55.383769 55.425312 55.456394
55.477051 55.487233 55.486952 55.476207 55.454986 55.423339 55.381228 55.328754
55.265855 55.192687 55.109165 55.015499 54.911586 54.797694 54.673706 54.539945
54.396287 54.243116 54.080300 53.908288 53.726945 53.536786 53.337676 53.130198
52.914219 52.690389 52.458583 52.219513 51.973063 51.720007 51.460237 51.194582
50.922944 50.646203 50.364264 50.078052 49.787474 49.493491 49.196007 48.896011
48.593399 48.289176 47.983229 47.676568 47.369063 47.061721 46.754391 46.448067
46.142574 45.838881 45.536785 45.237225 44.939966 44.645908 44.354784 44.067447
43.783598 43.504038 43.228435 42.957533 42.690968 42.429424 42.172507 41.920836
41.673993 41.432530 41.196003 40.964897 40.738750 40.517979 40.302104 40.091474
39.885599 39.684759 39.488457 39.296905 39.109607 38.926707 38.747712 38.572703
38.401194 38.233204 38.068260 37.906321 37.746932 37.589995 37.435078 37.282028
37.130439 36.980108 36.830663 36.681850 36.533333
36.911111 37.083896 37.256998 37.430779 37.605509 37.781589 37.959234 38.138881
38.320691 38.505127 38.692292 38.882672 39.076307 39.273704 39.474834 39.680219
39.889761 40.103990 40.322737 40.546533 40.775139 41.009081 41.248047 41.492553
41.742212 41.997529 42.258039 42.524229 42.795560 43.072495 43.354422 43.641777
43.933874 44.231120 44.532760 44.839167 45.149521 45.464160 45.782202 46.103949
46.428465 46.756015 47.085615 47.417496 47.750633 48.085224 48.420214 48.755769
49.090815 49.425492 49.758716 50.090606 50.420077 50.747235 51.071005 51.391486
51.707624 52.019513 52.326135 52.627582 52.922882 53.212130 53.494406 53.769815
54.037493 54.297556 54.549206 54.792568 55.026913 55.252376 55.468297 55.674819
55.871355 56.058051 56.234392 56.400523 56.556000 56.700963 56.835035 56.958349
57.070589 57.171877 57.261959 57.340938 57.408619 57.465082 57.510192 57.544002
57.566432 57.577510 57.577207 57.565524 57.542487 57.508067 57.462345 57.405266
57.336964 57.257360 57.166646 57.064720 56.951835 56.827868 56.693136 56.547504
56.391350 56.224533 56.047499 55.860101 55.662855 55.455616 55.238972 55.012780
54.777701 54.533601 54.281211 54.020407 53.751989 53.475843 53.192835 52.902862
52.606848 52.304699 51.997392 51.684836 51.368054 51.046957 50.722601 50.394891
50.064909 49.732551 49.398912 49.063870 48.728523 48.392730 48.057577 47.722899
47.389762 47.057970 46.728560 46.401302 46.077195 45.755974 45.438590 45.124741
44.815325 44.510004 44.209614 43.913784 43.623283 43.337707 43.057758 42.782999
42.514062 42.250480 41.992814 41.740572 41.494241 41.253311 41.018192 40.788360
40.564151 40.345030 40.131260 39.922302 39.718345 39.518852 39.323942 39.133082
38.946323 38.763143 38.583528 38.406973 38.233398 38.062322 37.893604 37.726789
37.561680 37.397854 37.235061 37.072913 36.911111
37.288889 37.476068 37.663617 37.851854 38.041193 38.231901 38.424428 38.618984
38.816055 39.015786 39.218693 39.424854 39.634809 39.848567 40.066683 40.289095
40.516368 40.748367 40.985662 41.228038 41.476065 41.729451 41.988758 42.253614
42.524567 42.801165 43.083940 43.372355 43.666921 43.967021 44.273137 44.584573
44.901779 45.223983 45.551599 45.883782 46.220908 46.562062 46.907581 47.256487
47.609076 47.964315 48.322459 48.682427 49.044437 49.407366 49.771400 50.135388
50.499483 50.862516 51.224617 51.584611 51.942606 52.297436 52.649195 52.996736
53.340147 53.678311 54.011315 54.338086 54.658714 54.972178 55.278578 55.576954
55.867416 56.149073 56.422049 56.685524 56.939636 57.183641 57.417687 57.641110
57.854064 58.055963 58.246964 58.426559 58.594903 58.751561 58.896682 59.029902
59.151359 59.260754 59.358209 59.443490 59.516697 59.577657 59.626444 59.662943
59.687201 59.699161 59.698837 59.686229 59.661322 59.624170 59.574728 59.513109
59.439238 59.353287 59.255155 59.145077 59.022929 58.889010 58.743181 58.585807
58.416737 58.236408 58.044662 57.842011 57.628296 57.404104 57.169281 56.924494
56.669594 56.405326 56.131556 55.849103 55.557846 55.258679 54.951492 54.637250
54.315853 53.988329 53.654587 53.315708 52.971605 52.623402 52.271012 51.915592
51.557046 51.196553 50.834003 50.470582 50.106162 49.741923 49.377714 49.014695
48.652686 48.292820 47.934881 47.579965 47.227817 46.879486 46.534677 46.194383
45.858270 45.527267 45.201001 44.880334 44.564852 44.255345 43.951364 43.653624
43.361642 43.076055 42.796350 42.523085 42.255723 41.994743 41.739588 41.490655
41.247374 41.010062 40.778142 40.551851 40.330609 40.114578 39.903179 39.696500
39.493972 39.295608 39.100856 38.909659 38.721485 38.536211 38.353330 38.172656
37.993714 37.816260 37.639854 37.464196 37.288889
37.666667 37.868485 38.070676 38.273663 38.477762 38.683443 38.890961 39.100825
39.313227 39.528707 39.747391 39.969845 40.196122 40.426809 40.661885 40.901951
41.146907 41.397362 41.653134 41.914835 42.182199 42.455832 42.735385 43.021453
43.313598 43.612399 43.917331 44.228951 44.546646 44.870945 45.201150 45.537754
45.879978 46.228277 46.581789 46.940930 47.304761 47.673654 48.046598 48.423922
48.804549 49.188763 49.575431 49.964793 50.355667 50.748256 51.141337 51.535079
51.928233 52.320937 52.711929 53.101320 53.487853 53.871618 54.251373 54.627198
54.997878 55.363490 55.722858 56.076064 56.421984 56.760708 57.091175 57.413487
57.726656 58.030797 58.325000 58.609398 58.883159 59.146433 59.398473 59.639440
59.868670 60.086334 60.291850 60.485391 60.666457 60.835218 60.991251 61.134714
61.265261 61.383034 61.487755 61.579545 61.658193 61.723794 61.776199 61.815474
61.841530 61.854401 61.854056 61.840496 61.813749 61.773780 61.720678 61.654375
61.575020 61.482517 61.377076 61.258575 61.127293 60.983084 60.826297 60.656773
60.474933 60.280609 60.074300 59.855834 59.625791 59.384004 59.131136 58.867026
58.592423 58.307179 58.012128 57.707136 57.393119 57.069959 56.738653 56.399096
56.052356 55.698343 55.338188 54.971810 54.600392 54.223858 53.843431 53.459032
53.071914 52.681986 52.290518 51.897399 51.503901 51.109891 50.716626 50.323943
49.933076 49.543823 49.157384 48.773516 48.393371 48.016664 47.644490 47.276521
46.913787 46.555913 46.203861 45.857213 45.516851 45.182319 44.854420 44.532656
44.217748 43.909166 43.607544 43.312324 43.024053 42.742148 42.467072 42.198221
41.935974 41.679714 41.429734 41.185413 40.946958 40.713749 40.485912 40.262832
40.044558 39.830487 39.620591 39.414285 39.211470 39.011586 38.814464 38.619573
38.426679 38.235290 38.045110 37.855686 37.666667
38.044444 38.261132 38.478247 38.696164 38.915360 39.136148 39.359050 39.584313
39.812497 40.043778 40.278748 40.517510 40.760679 41.008280 41.260949 41.518625
41.781957 42.050801 42.325809 42.606749 42.894271 43.188052 43.488735 43.795906
44.110189 44.431079 44.759179 45.093888 45.435783 45.784170 46.139592 46.501263
46.869687 47.243991 47.624634 48.010658 48.402476 48.799050 49.200744 49.606444
50.016468 50.429634 50.846211 51.264960 51.686105 52.108358 52.531902 52.955414
53.379040 53.801437 54.222717 54.641532 55.057972 55.470696 55.879778 56.283900
56.683130 57.076187 57.463141 57.842761 58.215125 58.579065 58.934673 59.280855
59.617720 59.944254 60.260587 60.565792 60.860016 61.142425 61.413182 61.671543
61.917685 62.150955 62.371535 62.578861 62.773117 62.953823 63.121157 63.274718