# vtk DataFile Version 3.0
Steady-state temperature (Jacobi)
ASCII
DATASET STRUCTURED_POINTS
DIMENSIONS 181 181 1
ORIGIN 0.0 0.0 0.0
SPACING 0.05 0.05 1.0
POINT_DATA 32761
SCALARS Temperature float 1
LOOKUP_TABLE default
32.000000 32.000000 32.000000 32.000000 32.000000 32.000000 32.000000 32.000000
32.000000 32.000000 32.000000 32.000000 32.000000 32.000000 32.000000 32.000000
32.000000 32.000000 32.000000 32.000000 32.000000 32.000000 32.000000 32.000000
32.000000 32.000000 32.000000 32.000000 32.000000 32.000000 32.000000 32.000000
32.000000 32.000000 32.000000 32.000000 32.000000 32.000000 32.000000 32.000000
32.000000 32.000000 32.000000 32.000000 32.000000 32.000000 32.000000 32.000000
32.000000 32.000000 32.000000 32.000000 32.000000 32.000000 32.000000 32.000000
32.000000 32.000000 32.000000 32.000000 32.000000 32.000000 32.000000 32.000000
32.000000 32.000000 32.000000 32.000000 32.000000 32.000000 32.000000 32.000000
32.000000 32.000000 32.000000 32.000000 32.000000 32.000000 32.000000 32.000000
32.000000 32.000000 32.000000 32.000000 32.000000 32.000000 32.000000 32.000000
32.000000 32.000000 32.000000 32.000000 32.000000 32.000000 32.000000 32.000000
32.000000 32.000000 32.000000 32.000000 32.000000 32.000000 32.000000 32.000000
32.000000 32.000000 32.000000 32.000000 32.000000 32.000000 32.000000 32.000000
32.000000 32.000000 32.000000 32.000000 32.000000 32.000000 32.000000 32.000000
32.000000 32.000000 32.000000 32.000000 32.000000 32.000000 32.000000 32.000000
32.000000 32.000000 32.000000 32.000000 32.000000 32.000000 32.000000 32.000000
32.000000 32.000000 32.000000 32.000000 32.000000 32.000000 32.000000 32.000000
32.000000 32.000000 32.000000 32.000000 32.000000 32.000000 32.000000 32.000000
32.000000 32.000000 32.000000 32.000000 32.000000 32.000000 32.000000 32.000000
32.000000 32.000000 32.000000 32.000000 32.000000 32.000000 32.000000 32.000000
32.000000 32.000000 32.000000 32.000000 32.000000 32.000000 32.000000 32.000000
32.000000 32.000000 32.000000 32.000000 32.000000
32.377778 32.408361 32.438947 32.469543 32.500150 32.530774 32.561418 32.592085
32.622779 32.653504 32.684261 32.715054 32.745884 32.776753 32.807663 32.838614
32.869607 32.900641 32.931716 32.962830 32.993980 33.025166 33.056381 33.087625
33.118889 33.150170 33.181460 33.212753 33.244040 33.275313 33.306561 33.337775
33.368941 33.400050 33.431085 33.462036 33.492885 33.523618 33.554217 33.584668
33.614949 33.645046 33.674935 33.704601 33.734019 33.763172 33.792037 33.820594
33.848819 33.876694 33.904192 33.931296 33.957979 33.984224 34.010005 34.035305
34.060098 34.084369 34.108092 34.131253 34.153828 34.175804 34.197158 34.217878
34.237944 34.257344 34.276061 34.294084 34.311398 34.327994 34.343858 34.358982
34.373356 34.386972 34.399821 34.411899 34.423196 34.433709 34.443432 34.452361
34.460492 34.467823 34.474348 34.480068 34.484979 34.489080 34.492369 34.494846
34.496510 34.497361 34.497398 34.496621 34.495031 34.492628 34.489414 34.485390
34.480556 34.474916 34.468471 34.461224 34.453178 34.444336 34.434703 34.424282
34.413081 34.401103 34.388356 34.374846 34.360583 34.345573 34.329828 34.313356
34.296170 34.278280 34.259702 34.240446 34.220530 34.199966 34.178773 34.156966
34.134565 34.111586 34.088051 34.063976 34.039385 34.014295 33.988732 33.962713
33.936263 33.909401 33.882153 33.854537 33.826579 33.798298 33.769719 33.740859
33.711745 33.682392 33.652826 33.623062 33.593123 33.563025 33.532788 33.502427
33.471962 33.441404 33.410773 33.380078 33.349337 33.318559 33.287758 33.256942
33.226124 33.195309 33.164510 33.133729 33.102978 33.072257 33.041575 33.010934
32.980339 32.949790 32.919292 32.888844 32.858449 32.828105 32.797812 32.767569
32.737376 32.707228 32.677126 32.647064 32.617042 32.587054 32.557097 32.527168
32.497262 32.467374 32.437501 32.407637 32.377778
32.755556 32.816723 32.877899 32.939091 33.000309 33.061558 33.122849 33.184185
33.245577 33.307029 33.368547 33.430135 33.491800 33.553543 33.615368 33.677275
33.739267 33.801340 33.863497 33.925730 33.988041 34.050418 34.112860 34.175353
34.237894 34.300465 34.363058 34.425654 34.488243 34.550800 34.613313 34.675752
34.738103 34.800334 34.862425 34.924341 34.986059 35.047542 35.108763 35.169681
35.230267 35.290478 35.350281 35.409630 35.468492 35.526819 35.584574 35.641708
35.698184 35.753953 35.808975 35.863202 35.916594 35.969103 36.020690 36.071307
36.120919 36.169476 36.216946 36.263283 36.308455 36.352421 36.395149 36.436601
36.476751 36.515563 36.553012 36.589069 36.623710 36.656910 36.688650 36.718906
36.747663 36.774901 36.800608 36.824767 36.847368 36.868398 36.887849 36.905710
36.921976 36.936638 36.949693 36.961133 36.970957 36.979160 36.985740 36.990695
36.994023 36.995724 36.995798 36.994244 36.991064 36.986258 36.979828 36.971778
36.962110 36.950827 36.937935 36.923438 36.907342 36.889655 36.870384 36.849540
36.827130 36.803169 36.777668 36.750642 36.722106 36.692079 36.660577 36.627624
36.593239 36.557450 36.520277 36.481754 36.441904 36.400763 36.358358 36.314729
36.269906 36.223932 36.176838 36.128671 36.079465 36.029268 35.978116 35.926059
35.873133 35.819390 35.764868 35.709617 35.653675 35.597093 35.539909 35.482171
35.423916 35.365193 35.306036 35.246490 35.186589 35.126375 35.065879 35.005142
34.944189 34.883060 34.821777 34.760375 34.698874 34.637306 34.575687 34.514045
34.452393 34.390755 34.329142 34.267574 34.206057 34.144609 34.083234 34.021946
33.960746 33.899644 33.838640 33.777740 33.716942 33.656250 33.595659 33.535170
33.474778 33.414481 33.354271 33.294147 33.234098 33.174121 33.114205 33.054345
32.994530 32.934754 32.875005 32.815276 32.755556
33.133333 33.225090 33.316859 33.408653 33.500484 33.592364 33.684305 33.776318
33.868411 33.960597 34.052882 34.145275 34.237780 34.330407 34.423154 34.516029
34.609028 34.702156 34.795405 34.888775 34.982256 35.075846 35.169527 35.263295
35.357126 35.451013 35.544927 35.638856 35.732766 35.826640 35.920439 36.014140
36.107701 36.201092 36.294265 36.387188 36.479806 36.572082 36.663957 36.755389
36.846315 36.936688 37.026441 37.115525 37.203868 37.291419 37.378103 37.463866
37.548633 37.632347 37.714934 37.796335 37.876475 37.955297 38.032728 38.108712
38.183176 38.256068 38.327317 38.396875 38.464674 38.530670 38.594800 38.657022
38.717280 38.775536 38.831741 38.885859 38.937847 38.987677 39.035308 39.080717
39.123870 39.164748 39.203323 39.239578 39.273491 39.305049 39.334234 39.361036
39.385441 39.407443 39.427029 39.444195 39.458934 39.471242 39.481114 39.488548
39.493541 39.496093 39.496204 39.493872 39.489100 39.481889 39.472243 39.460164
39.445658 39.428729 39.409385 39.387632 39.363481 39.336941 39.308025 39.276745
39.243120 39.207161 39.168895 39.128335 39.085513 39.040447 38.993173 38.943714
38.892111 38.838392 38.782604 38.724780 38.664971 38.603216 38.539571 38.474080
38.406804 38.337791 38.267106 38.194800 38.120943 38.045590 37.968812 37.890666
37.811226 37.730551 37.648715 37.565776 37.481811 37.396877 37.311048 37.224381
37.136948 37.048804 36.960019 36.870643 36.780745 36.690370 36.599582 36.508424
36.416955 36.325212 36.233250 36.141102 36.048818 35.956424 35.863965 35.771464
35.678959 35.586468 35.494024 35.401640 35.309345 35.217146 35.125066 35.033110
34.941295 34.849621 34.758102 34.666734 34.575527 34.484473 34.393577 34.302831
34.212236 34.121779 34.031459 33.941263 33.851185 33.761212 33.671334 33.581538
33.491813 33.402143 33.312516 33.222917 33.133333
33.511111 33.633462 33.755830 33.878231 34.000683 34.123200 34.245800 34.368495
34.491301 34.614228 34.737291 34.860497 34.983858 35.107377 35.231065 35.354919
35.478947 35.603141 35.727507 35.852030 35.976711 36.101530 36.226484 36.351545
36.476706 36.601932 36.727209 36.852498 36.977776 37.102998 37.228134 37.353132
37.477958 37.602548 37.726864 37.850837 37.974419 38.097535 38.220132 38.342129
38.463465 38.584054 38.703832 38.822705 38.940606 39.057439 39.173130 39.287581
39.400716 39.512436 39.622664 39.731298 39.838262 39.943456 40.046805 40.148210
40.247599 40.344877 40.439974 40.532800 40.623290 40.711360 40.796950 40.879981
40.960400 41.038137 41.113142 41.185353 41.254729 41.321213 41.384770 41.445353
41.502932 41.557467 41.608934 41.657299 41.702543 41.744640 41.783574 41.819325
41.851881 41.881226 41.907353 41.930249 41.949908 41.966324 41.979491 41.989406
41.996066 41.999470 41.999616 41.996507 41.990141 41.980524 41.967657 41.951547
41.932197 41.909617 41.883813 41.854798 41.822581 41.787179 41.748603 41.706877
41.662015 41.614046 41.562990 41.508880 41.451741 41.391616 41.328533 41.262543
41.193681 41.122003 41.047552 40.970392 40.890571 40.808162 40.723220 40.635822
40.546030 40.453929 40.359584 40.263088 40.164509 40.063944 39.961466 39.857173
39.751143 39.643476 39.534248 39.423563 39.311497 39.198151 39.083600 38.967946
38.851259 38.733638 38.615151 38.495892 38.375925 38.255338 38.134190 38.012565
37.890515 37.768116 37.645415 37.522482 37.399358 37.276103 37.152753 37.029362
36.905957 36.782586 36.659269 36.536048 36.412935 36.289965 36.167147 36.044506
35.922046 35.799787 35.677727 35.555880 35.434241 35.312816 35.191597 35.070587
34.949772 34.829150 34.708706 34.588434 34.468316 34.348342 34.228494 34.108758
33.989114 33.869546 33.750036 33.630564 33.511111
33.888889 34.041842 34.194817 34.347834 34.500914 34.654079 34.807344 34.960734
35.114260 35.267944 35.421795 35.575831 35.730059 35.884493 36.039133 36.193993
36.349064 36.504357 36.659857 36.815568 36.971470 37.127561 37.283812 37.440215
37.596733 37.753352 37.910027 38.066734 38.223419 38.380053 38.536572 38.692938
38.849077 39.004945 39.160459 39.315564 39.470170 39.624214 39.777598 39.930252
40.082068 40.232971 40.382846 40.531610 40.679145 40.825362 40.970138 41.113381
41.254965 41.394794 41.532742 41.668713 41.802580 41.934247 42.063589 42.190514
42.314899 42.436656 42.555668 42.671850 42.785093 42.895318 43.002424 43.106339
43.206969 43.304251 43.398101 43.488463 43.575263 43.658452 43.737967 43.813767
43.885797 43.954024 44.018403 44.078906 44.135497 44.188156 44.236851 44.281568
44.322283 44.358986 44.391659 44.420293 44.444878 44.465407 44.481872 44.494271
44.502599 44.506855 44.507038 44.503148 44.495189 44.483161 44.467071 44.446922
44.422725 44.394484 44.362214 44.325923 44.285631 44.241349 44.193102 44.140906
44.084793 44.024784 43.960917 43.893220 43.821741 43.746512 43.667591 43.585018
43.498859 43.409164 43.316006 43.219444 43.119562 43.016425 42.910128 42.800742
42.688372 42.573096 42.455024 42.334244 42.210871 42.084996 41.956742 41.826202
41.693503 41.558741 41.422043 41.283506 41.143259 41.001397 40.858047 40.713301
40.567285 40.420086 40.271824 40.122584 39.972480 39.821588 39.670016 39.517834
39.365143 39.212005 39.058511 38.904716 38.750702 38.596515 38.442230 38.287884
38.133540 37.979230 37.825007 37.670894 37.516936 37.363147 37.209566 37.056198
36.903073 36.750192 36.597575 36.445218 36.293133 36.141311 35.989758 35.838459
35.687416 35.536610 35.386035 35.235671 35.085507 34.935520 34.785695 34.636008
34.486441 34.336968 34.187568 34.038216 33.888889
34.266667 34.450231 34.633823 34.817465 35.001184 35.185004 35.368951 35.553044
35.737308 35.921758 36.106418 36.291297 36.476417 36.661780 36.847404 37.033285
37.219436 37.405846 37.592523 37.779446 37.966618 38.154008 38.341611 38.529389
38.717328 38.905379 39.093520 39.281691 39.469861 39.657959 39.845945 40.033737
40.221284 40.408494 40.595305 40.781615 40.967352 41.152403 41.336688 41.520083
41.702499 41.883804 42.063900 42.242649 42.419946 42.595644 42.769636 42.941770
43.111933 43.279972 43.445771 43.609177 43.770075 43.928311 44.083772 44.236308
44.385810 44.532134 44.675174 44.814794 44.950895 45.083351 45.212069 45.336934
45.457862 45.574749 45.687521 45.796084 45.900376 46.000313 46.095843 46.186895
46.273424 46.355372 46.432702 46.505366 46.573336 46.636572 46.695053 46.748749
46.797643 46.841711 46.880944 46.915323 46.944842 46.969487 46.989256 47.004141
47.014139 47.019248 47.019467 47.014798 47.005240 46.990800 46.971480 46.947290
46.918234 46.884327 46.845577 46.802002 46.753615 46.700441 46.642497 46.579815
46.512417 46.440346 46.363629 46.282318 46.196448 46.106081 46.011263 45.912065
45.808542 45.700777 45.588835 45.472812 45.352781 45.228850 45.101100 44.969653
44.834598 44.696065 44.554153 44.409001 44.260713 44.109436 43.955281 43.798397
43.638901 43.476945 43.312645 43.146158 42.977598 42.807121 42.634840 42.460908
42.285433 42.108563 41.930402 41.751092 41.570730 41.389449 41.207339 41.024524
40.841084 40.657135 40.472747 40.288024 40.103028 39.917852 39.732546 39.547193
39.361834 39.176539 38.991340 38.806296 38.621430 38.436790 38.252390 38.068269
37.884430 37.700904 37.517687 37.334800 37.152233 36.969999 36.788081 36.606483
36.425185 36.244185 36.063458 35.882994 35.702766 35.522759 35.342944 35.163300
34.983798 34.804413 34.625115 34.445876 34.266667
34.644444 34.858632 35.072849 35.287129 35.501498 35.715990 35.930627 36.145442
36.360455 36.575694 36.791175 37.006925 37.222950 37.439275 37.655900 37.872843
38.090095 38.307669 38.525548 38.743737 38.962209 39.180960 39.399953 39.619176
39.838579 40.058141 40.277799 40.497522 40.717234 40.936895 41.156414 41.375739
41.594767 41.813434 42.031626 42.249264 42.466223 42.682414 42.897697 43.111973
43.325093 43.536948 43.747376 43.956261 44.163435 44.368771 44.572097 44.773280
44.972142 45.168549 45.362319 45.553318 45.741364 45.926322 46.108016 46.286313
46.461040 46.632071 46.799242 46.962431 47.121485 47.276292 47.426709 47.572634
47.713937 47.850527 47.982287 48.109138 48.230977 48.347737 48.459328 48.565695
48.666761 48.762481 48.852793 48.937660 49.017030 49.090878 49.159162 49.221861
49.278945 49.330399 49.376199 49.416336 49.450794 49.479566 49.502641 49.520017
49.531687 49.537650 49.537905 49.532453 49.521296 49.504438 49.481885 49.453643
49.419725 49.380136 49.334897 49.284018 49.227525 49.165432 49.097774 49.024572
48.945868 48.861691 48.772095 48.677115 48.576818 48.471250 48.360488 48.244589
48.123646 47.997726 47.866934 47.731350 47.591094 47.446257 47.296971 47.143338
46.985505 46.823583 46.657728 46.488063 46.314752 46.137925 45.957754 45.774373
45.587961 45.398653 45.206633 45.012036 44.815045 44.615794 44.414465 44.211188
44.006140 43.799447 43.591277 43.381750 43.171026 42.959215 42.746469 42.532887
42.318609 42.103724 41.888360 41.672594 41.456542 41.240269 41.023877 40.807419
40.590986 40.374619 40.158394 39.942340 39.726523 39.510962 39.295707 39.080769
38.866187 38.651962 38.438121 38.224658 38.011590 37.798902 37.586604 37.374672
37.163109 36.951886 36.740996 36.530409 36.320109 36.110064 35.900251 35.690636
35.481192 35.271883 35.062680 34.853544 34.644444
35.022222 35.267044 35.511901 35.756829 36.001864 36.247037 36.492384 36.737933
36.983718 37.229759 37.476091 37.722725 37.969692 38.216997 38.464664 38.712690
38.961093 39.209858 39.458997 39.708484 39.958323 40.208475 40.458933 40.709648
40.960601 41.211728 41.463000 41.714338 41.965701 42.216996 42.468167 42.719106
42.969746 43.219962 43.469674 43.718743 43.967073 44.214513 44.460955 44.706232
44.950224 45.192754 45.433690 45.672844 45.910075 46.145186 46.378030 46.608402
46.836149 47.061065 47.282992 47.501722 47.717100 47.928918 48.137021 48.341209
48.541332 48.737195 48.928655 49.115530 49.297686 49.474950 49.647201 49.814281
49.976080 50.132456 50.283312 50.428522 50.568002 50.701644 50.829376 50.951106
51.066776 51.176307 51.279654 51.376752 51.467568 51.552048 51.630168 51.701887
51.767186 51.826035 51.878422 51.924324 51.963734 51.996636 52.023025 52.042894
52.056239 52.063057 52.063347 52.057112 52.044351 52.025072 51.999278 51.966981
51.928185 51.882909 51.831162 51.772969 51.708342 51.637316 51.559909 51.476165
51.386110 51.289798 51.187266 51.078581 50.963789 50.842970 50.716184 50.583526
50.445068 50.300921 50.151170 49.995944 49.835339 49.669502 49.498542 49.322620
49.141859 48.956432 48.766474 48.572172 48.373668 48.171158 47.964794 47.754779
47.541269 47.324471 47.104544 46.881696 46.656086 46.427923 46.197360 45.964604
45.729801 45.493152 45.254797 45.014927 44.773673 44.531214 44.287672 44.043213
43.797946 43.552025 43.305544 43.058644 42.811405 42.563954 42.316356 42.068723
41.821108 41.573605 41.326256 41.079140 40.832285 40.585757 40.339571 40.093779
39.848386 39.603430 39.358907 39.114843 38.871223 38.628063 38.385341 38.143061
37.901195 37.659738 37.418656 37.177936 36.937540 36.697448 36.457618 36.218024
35.978624 35.739384 35.500262 35.261222 35.022222
35.400000 35.675469 35.950978 36.226570 36.502282 36.778156 37.054225 37.330531
37.607101 37.883974 38.161170 38.438726 38.716652 38.994980 39.273712 39.552872
39.832452 40.112468 40.392900 40.673756 40.955002 41.236635 41.518608 41.800906
42.083466 42.366263 42.649216 42.932285 43.215376 43.498434 43.781345 44.064041
44.346391 44.628311 44.909653 45.190318 45.470142 45.749009 46.026740 46.303206
46.578211 46.851614 47.123206 47.392834 47.660278 47.925374 48.187895 48.447670
48.704465 48.958103 49.208349 49.455023 49.697892 49.936776 50.171444 50.401723
50.627389 50.848273 51.064163 51.274900 51.480284 51.680169 51.874369 52.062752
52.245149 52.421442 52.591482 52.755166 52.912362 53.062984 53.206918 53.344094
53.474415 53.597825 53.714245 53.823631 53.925919 54.021075 54.109051 54.189822
54.263350 54.329619 54.388601 54.440285 54.484651 54.521694 54.551401 54.573768
54.588790 54.596464 54.596790 54.589768 54.575403 54.553696 54.524658 54.488292
54.444614 54.393632 54.335369 54.269835 54.197062 54.117067 54.029892 53.935561
53.834128 53.725625 53.610121 53.487660 53.358324 53.222172 53.079301 52.929783
52.773736 52.611247 52.442449 52.267447 52.086394 51.899407 51.706659 51.508283
51.304467 51.095357 50.881158 50.662028 50.438183 50.209792 49.977080 49.740224
49.499455 49.254954 49.006958 48.755646 48.501256 48.243966 47.984010 47.721562
47.456851 47.190040 46.921352 46.650941 46.379016 46.105721 45.831252 45.555737
45.279361 45.002236 44.724529 44.446339 44.167816 43.889044 43.610154 43.331215
43.052342 42.773587 42.495048 42.216764 41.938816 41.661227 41.384063 41.107335
40.831093 40.555336 40.280099 40.005372 39.731177 39.457492 39.184327 38.911654
38.639471 38.367742 38.096457 37.825575 37.555074 37.284911 37.015056 36.745464
36.476099 36.206913 35.937866 35.668910 35.400000
35.777778 36.083908 36.390084 36.696352 37.002760 37.309346 37.616160 37.923236
38.230620 38.538338 38.846435 39.154929 39.463858 39.773231 40.083079 40.393401
40.704219 41.015520 41.327318 41.639583 41.952319 42.265483 42.579066 42.893006
43.207283 43.521818 43.836575 44.151457 44.466413 44.781327 45.096129 45.410687
45.724913 46.038655 46.351808 46.664200 46.975711 47.286149 47.595376 47.903185
48.209421 48.513861 48.816337 49.116611 49.414503 49.709763 50.002202 50.291563
50.577647 50.860193 51.138999 51.413801 51.684398 51.950528 52.211992 52.468534
52.719963 52.966032 53.206558 53.441310 53.670115 53.892758 54.109083 54.318891
54.522043 54.718361 54.907723 55.089971 55.265002 55.432680 55.592917 55.745600
55.890657 56.027993 56.157554 56.279261 56.393075 56.498933 56.596806 56.686647
56.768434 56.842134 56.907733 56.965206 57.014544 57.055732 57.088764 57.113632
57.130334 57.138864 57.139225 57.131417 57.115441 57.091305 57.059012 57.018574
56.969998 56.913303 56.848499 56.775614 56.694662 56.605682 56.508696 56.403753
56.290886 56.170158 56.041612 55.905329 55.761364 55.609817 55.450758 55.284307
55.110550 54.929627 54.741644 54.546760 54.345098 54.136841 53.922128 53.701160
53.474095 53.241152 53.002502 52.758382 52.508975 52.254530 51.995239 51.731362
51.463097 51.190710 50.914403 50.634441 50.351028 50.064428 49.774839 49.482521
49.187665 48.890522 48.591272 48.290156 47.987342 47.683057 47.377453 47.070741
46.763060 46.454602 46.145487 45.835891 45.525917 45.215720 44.905384 44.595048
44.284778 43.974692 43.664839 43.355320 43.046167 42.737461 42.429221 42.121510
41.814334 41.507737 41.201714 40.896294 40.591459 40.287225 39.983564 39.680480
39.377936 39.075923 38.774398 38.473342 38.172707 37.872464 37.572562 37.272964
36.973616 36.674476 36.375489 36.076608 35.777778
36.155556 36.492361 36.829218 37.166180 37.503294 37.840616 38.178187 38.516060
38.854271 39.192871 39.531884 39.871359 40.211311 40.551779 40.892770 41.234314
41.576404 41.919062 42.262265 42.606024 42.950301 43.295094 43.640345 43.986041
44.332106 44.678507 45.025151 45.371989 45.718906 46.065835 46.412640 46.759235
47.105462 47.451218 47.796321 48.140648 48.483999 48.826230 49.167120 49.506508
49.844154 50.179879 50.513428 50.844607 51.173145 51.498835 51.821397 52.140613
52.456194 52.767918 53.075493 53.378691 53.677221 53.970859 54.259317 54.542376
54.819757 55.091251 55.356591 55.615580 55.867969 56.113575 56.352171 56.583590
56.807625 57.024132 57.232926 57.433882 57.626840 57.811695 57.988309 58.156600
58.316451 58.467796 58.610541 58.744637 58.870008 58.986618 59.094410 59.193359
59.283420 59.364578 59.436802 59.500083 59.554397 59.599742 59.636102 59.663477
59.681859 59.691249 59.691644 59.683046 59.665459 59.638885 59.603335 59.558812
59.505333 59.442904 59.371552 59.291286 59.202141 59.104136 58.997316 58.881710
58.757377 58.624356 58.482724 58.332534 58.173883 58.006838 57.831518 57.648009
57.456452 57.256951 57.049672 56.834740 56.612343 56.382627 56.145804 55.902038
55.651563 55.394561 55.131285 54.861934 54.586776 54.306022 54.019955 53.728793
53.432828 53.132285 52.827460 52.518577 52.205934 51.889754 51.570328 51.247873
50.922675 50.594939 50.264939 49.932869 49.598988 49.263474 48.926571 48.588438
48.249300 47.909300 47.568640 47.227444 46.885895 46.544095 46.202206 45.860312
45.518551 45.176987 44.835740 44.494855 44.154430 43.814492 43.475120 43.136326
42.798169 42.460646 42.123798 41.787610 41.452107 41.117262 40.783083 40.449535
40.116613 39.784271 39.452494 39.121230 38.790451 38.460101 38.130143 37.800517
37.471180 37.142070 36.813135 36.484316 36.155556
36.533333 36.900828 37.268381 37.636048 38.003891 38.371959 38.740313 39.108997
39.478068 39.847563 40.217534 40.588008 40.959033 41.330621 41.702814 42.075612
42.449045 42.823099 43.197792 43.573093 43.949010 44.325489 44.702526 45.080047
45.458029 45.836381 46.215060 46.593952 46.972996 47.352053 47.731044 48.109806
48.488236 48.866150 49.243423 49.619847 49.995275 50.369476 50.742282 51.113441
51.482765 51.849981 52.214884 52.577183 52.936657 53.293002 53.645983 53.995285
54.340664 54.681799 55.018441 55.350266 55.677025 55.998396 56.314134 56.623926
56.927533 57.224655 57.515066 57.798482 58.074693 58.343435 58.604516 58.857698
59.102810 59.339637 59.568032 59.787806 59.998835 60.200957 60.394071 60.578040
60.752784 60.918192 61.074202 61.220724 61.357715 61.485105 61.602863 61.710936
61.809305 61.897932 61.976805 62.045898 62.105205 62.154709 62.194407 62.224289
62.244356 62.254603 62.255032 62.245644 62.226440 62.197428 62.158609 62.109999
62.051599 61.983432 61.905505 61.817848 61.720475 61.613427 61.496726 61.370428
61.234566 61.089212 60.934414 60.770264 60.596825 60.414211 60.222507 60.021851
59.812346 59.594158 59.367412 59.132302 58.888975 58.637650 58.378498 58.111763
57.837638 57.556389 57.268228 56.973442 56.672259 56.364981 56.051849 55.733179
55.409218 55.080290 54.746645 54.408610 54.066435 53.720445 53.370884 53.018070
52.662237 52.303694 51.942662 51.579434 51.214217 50.847285 50.478827 50.109097
49.738264 49.366561 48.994135 48.621196 48.247868 47.874339 47.500710 47.127146
46.753726 46.380590 46.007798 45.635467 45.263636 44.892399 44.521778 44.151845
43.782605 43.414111 43.046352 42.679362 42.313117 41.947633 41.582874 41.218842
40.855491 40.492806 40.130735 39.769252 39.408296 39.047830 38.687791 38.328131
37.968784 37.609697 37.250800 36.892034 36.533333
36.911111 37.309309 37.707570 38.105962 38.504543 38.903382 39.302530 39.702054
40.101999 40.502427 40.903372 41.304893 41.707012 42.109779 42.513202 42.917324
43.322136 43.727669 44.133898 44.540841 44.948452 45.356735 45.765623 46.175103
46.585086 46.995539 47.406351 47.817467 48.228751 48.640128 49.051435 49.462574
49.873357 50.283660 50.693271 51.102041 51.509731 51.916171 52.321096 52.724312
53.125532 53.524540 53.921029 54.314763 54.705417 55.092739 55.476391 55.856108
56.231541 56.602418 56.968384 57.329164 57.684404 58.033830 58.377094 58.713928
59.043994 59.367038 59.682737 59.990852 60.291084 60.583210 60.866956 61.142125
61.408468 61.665812 61.913939 62.152701 62.381910 62.601444 62.811143 63.010910
63.200613 63.380179 63.549501 63.708525 63.857169 63.995394 64.123139 64.240379
64.347068 64.443193 64.528721 64.603646 64.667947 64.721622 64.764657 64.797054
64.818805 64.829912 64.830374 64.820192 64.799372 64.767913 64.725826 64.673113
64.609791 64.535863 64.451356 64.356277 64.250663 64.134529 64.007925 63.870878
63.723453 63.565691 63.397678 63.219470 63.031177 62.832875 62.624700 62.406751
62.179190 61.942143 61.695800 61.440312 61.175901 60.902741 60.621083 60.331129
60.033155 59.727385 59.414122 59.093608 58.766166 58.432054 58.091614 57.745112
57.392903 57.035259 56.672539 56.305020 55.933059 55.556928 55.176981 54.793482
54.406774 54.017108 53.624813 53.230125 52.833354 52.434716 52.034502 51.632905
51.230193 50.826537 50.422177 50.017263 49.612009 49.206538 48.801041 48.395615
47.990424 47.585544 47.181112 46.777181 46.373864 45.971193 45.569257 45.168068
44.767693 44.368127 43.969415 43.571537 43.174517 42.778322 42.382960 41.988384
41.594586 41.201510 40.809133 40.417391 40.026250 39.635639 39.245511 38.855794
38.466433 38.077351 37.688485 37.299762 36.911111
37.288889 37.717802 38.146787 38.575913 39.005254 39.434873 39.864843 40.295218
40.726071 41.157446 41.589410 42.021996 42.455265 42.889234 43.323956 43.759433
44.195706 44.632760 45.070622 45.509258 45.948680 46.388830 46.829704 47.271221
47.713357 48.156007 48.599124 49.042578 49.486297 49.930125 50.373965 50.817633
51.261006 51.703870 52.146078 52.587387 53.027622 53.466512 53.903858 54.339361
54.772797 55.203844 55.632254 56.057684 56.479867 56.898439 57.313120 57.723531
58.129380 58.530281 58.925934 59.315951 59.700028 60.077784 60.448919 60.813058
61.169914 61.519127 61.860425 62.193468 62.518005 62.833723 63.140392 63.437729
63.725532 64.003549 64.271608 64.529487 64.777045 65.014093 65.240517 65.456162
65.660938 65.854720 66.037444 66.209010 66.369374 66.518461 66.656242 66.782663
66.897707 67.001337 67.093544 67.174303 67.243613 67.301458 67.347839 67.382748
67.406187 67.418153 67.418647 67.407673 67.385230 67.351325 67.305960 67.249145
67.180883 67.101193 67.010080 66.907572 66.793679 66.668445 66.531887 66.384064
66.225007 66.054795 65.873476 65.681152 65.477890 65.263820 65.039032 64.803686
64.557900 64.301864 64.035724 63.759703 63.473976 63.178800 62.874378 62.560997
62.238889 61.908369 61.569693 61.223202 60.869170 60.507962 60.139865 59.765259
59.384443 58.997804 58.605647 58.208361 57.806249 57.399700 56.989008 56.574553
56.156618 55.735570 55.311675 54.885281 54.456634 54.026063 53.593789 53.160115
52.725241 52.289440 51.852886 51.415826 50.978406 50.540844 50.103259 49.665842
49.228684 48.791948 48.355702 47.920078 47.485122 47.050939 46.617554 46.185046
45.753420 45.322732 44.892968 44.464163 44.036285 43.609352 43.183316 42.758176
42.333875 41.910393 41.487665 41.065657 40.644294 40.223531 39.803289 39.383511
38.964115 38.545034 38.126186 37.707498 37.288889
37.666667 38.126308 38.586027 39.045904 39.506013 39.966434 40.427234 40.888492
41.350264 41.812627 42.275624 42.739327 43.203765 43.669000 44.135048 44.601959
45.069730 45.538399 46.007943 46.478384 46.949676 47.421825 47.894760 48.368466
48.842848 49.317868 49.793402 50.269388 50.745674 51.222171 51.698697 52.175136
52.651275 53.126968 53.601970 54.076109 54.549107 55.020763 55.490769 55.958896
56.424809 56.888250 57.348860 57.806358 58.260361 58.710568 59.156579 59.598078
60.034652 60.465972 60.891621 61.311266 61.724487 62.130955 62.530257 62.922071
63.305998 63.681729 64.048887 64.407183 64.756264 65.095867 65.425670 65.745439
66.054886 66.353806 66.641949 66.919143 67.185173 67.439900 67.683145 67.914801
68.134721 68.342825 68.539000 68.723188 68.895304 69.055312 69.203147 69.338791
69.462198 69.573359 69.672246 69.758857 69.833174 69.895200 69.944924 69.982350
70.007474 70.020300 70.020827 70.009056 69.984993 69.948636 69.899994 69.839065
69.765865 69.680393 69.582671 69.472704 69.350526 69.216147 69.069616 68.910957
68.740236 68.557493 68.362818 68.156270 67.937968 67.707994 67.466498 67.213589
66.949453 66.674230 66.388139 66.091353 65.784129 65.466671 65.139273 64.802170
64.455689 64.100094 63.735744 63.362926 62.982025 62.593349 62.197302 61.794206
61.384479 60.968451 60.546547 60.119098 59.686529 59.249167 58.807429 58.361632
57.912181 57.459376 57.003605 56.545147 56.084367 55.621522 55.156951 54.690883
54.223629 53.755390 53.286447 52.816971 52.347213 51.877314 51.407492 50.937862
50.468609 49.999819 49.531649 49.064158 48.597471 48.131625 47.666716 47.202758
46.739822 46.277899 45.817038 45.357210 44.898441 44.440689 43.983956 43.528187
43.073367 42.619428 42.166338 41.714022 41.262433 40.811487 40.361127 39.911265
39.461831 39.012736 38.563903 38.115241 37.666667
38.044444 38.534823 39.025288 39.515924 40.006819 40.498050 40.989706 41.481854
41.974580 42.467941 42.962018 43.456853 43.952519 44.449044 44.946491 45.444868
45.944226 46.444553 46.945885 47.448187 47.951477 48.455695 48.960839 49.466823
49.973621 50.481118 50.989263 51.497911 52.006983 52.516302 53.025759 53.535145
54.044321 54.553042 55.061139 55.568331 56.074419 56.579088 57.082106 57.583127
58.081890 58.578018 59.071221 59.561096 60.047330 60.529496 61.007260 61.480180
61.947905 62.409984 62.866057 63.315667 63.758453 64.193964 64.621842 65.041646
65.453033 65.855580 66.248962 66.632783 67.006743 67.370477 67.723716 68.066130
68.397484 68.717489 69.025943 69.322599 69.607293 69.879815 70.140038 70.387791
70.622978 70.845465 71.055185 71.252035 71.435972 71.606922 71.764861 71.909736