# vtk DataFile Version 3.0
Steady-state temperature (Jacobi)
ASCII
DATASET STRUCTURED_POINTS
DIMENSIONS 181 181 1
ORIGIN 0.0 0.0 0.0
SPACING 0.05 0.05 1.0
POINT_DATA 32761
SCALARS Temperature float 1
LOOKUP_TABLE default
32.000000 32.000000 32.000000 32.000000 32.000000 32.000000 32.000000 32.000000
32.000000 32.000000 32.000000 32.000000 32.000000 32.000000 32.000000 32.000000
32.000000 32.000000 32.000000 32.000000 32.000000 32.000000 32.000000 32.000000
32.000000 32.000000 32.000000 32.000000 32.000000 32.000000 32.000000 32.000000
32.000000 32.000000 32.000000 32.000000 32.000000 32.000000 32.000000 32.000000
32.000000 32.000000 32.000000 32.000000 32.000000 32.000000 32.000000 32.000000
32.000000 32.000000 32.000000 32.000000 32.000000 32.000000 32.000000 32.000000
32.000000 32.000000 32.000000 32.000000 32.000000 32.000000 32.000000 32.000000
32.000000 32.000000 32.000000 32.000000 32.000000 32.000000 32.000000 32.000000
32.000000 32.000000 32.000000 32.000000 32.000000 32.000000 32.000000 32.000000
32.000000 32.000000 32.000000 32.000000 32.000000 32.000000 32.000000 32.000000
32.000000 32.000000 32.000000 32.000000 32.000000 32.000000 32.000000 32.000000
32.000000 32.000000 32.000000 32.000000 32.000000 32.000000 32.000000 32.000000
32.000000 32.000000 32.000000 32.000000 32.000000 32.000000 32.000000 32.000000
32.000000 32.000000 32.000000 32.000000 32.000000 32.000000 32.000000 32.000000
32.000000 32.000000 32.000000 32.000000 32.000000 32.000000 32.000000 32.000000
32.000000 32.000000 32.000000 32.000000 32.000000 32.000000 32.000000 32.000000
32.000000 32.000000 32.000000 32.000000 32.000000 32.000000 32.000000 32.000000
32.000000 32.000000 32.000000 32.000000 32.000000 32.000000 32.000000 32.000000
32.000000 32.000000 32.000000 32.000000 32.000000 32.000000 32.000000 32.000000
32.000000 32.000000 32.000000 32.000000 32.000000 32.000000 32.000000 32.000000
32.000000 32.000000 32.000000 32.000000 32.000000 32.000000 32.000000 32.000000
32.000000 32.000000 32.000000 32.000000 32.000000
32.377778 32.402346 32.426924 32.451526 32.476162 32.500843 32.525579 32.550382
32.575261 32.600228 32.625288 32.650456 32.675734 32.701136 32.726662 32.752327
32.778128 32.804079 32.830174 32.856427 32.882829 32.909393 32.936108 32.962984
32.990008 33.017189 33.044511 33.071982 33.099582 33.127317 33.155165 33.183129
33.211185 33.239335 33.267551 33.295832 33.324149 33.352499 33.380849 33.409196
33.437503 33.465767 33.493948 33.522041 33.550005 33.577833 33.605483 33.632947
33.660183 33.687180 33.713897 33.740322 33.766413 33.792160 33.817520 33.842482
33.867006 33.891081 33.914667 33.937754 33.960305 33.982309 34.003733 34.024566
34.044776 34.064356 34.083274 34.101525 34.119082 34.135938 34.152069 34.167471
34.182123 34.196021 34.209146 34.221496 34.233055 34.243821 34.253781 34.262935
34.271270 34.278787 34.285476 34.291339 34.296367 34.300562 34.303918 34.306436
34.308113 34.308949 34.308944 34.308096 34.306408 34.303880 34.300513 34.296308
34.291271 34.285400 34.278703 34.271180 34.262839 34.253682 34.243720 34.232953
34.221395 34.209049 34.195929 34.182039 34.167397 34.152008 34.135893 34.119055
34.101521 34.083296 34.064407 34.044861 34.024688 34.003897 33.982521 33.960568
33.938074 33.915050 33.891532 33.867532 33.843088 33.818214 33.792948 33.767304
33.741322 33.715015 33.688424 33.661562 33.634469 33.607158 33.579670 33.552015
33.524234 33.496335 33.468359 33.440312 33.412232 33.384125 33.356028 33.327943
33.299906 33.271916 33.244007 33.216177 33.188455 33.160840 33.133357 33.106001
33.078796 33.051736 33.024841 32.998103 32.971538 32.945138 32.918916 32.892862
32.866987 32.841278 32.815744 32.790371 32.765166 32.740113 32.715216 32.690460
32.665846 32.641358 32.616995 32.592741 32.568592 32.544532 32.520557 32.496650
32.472804 32.449005 32.425243 32.401504 32.377778
32.755556 32.804699 32.853866 32.903077 32.952358 33.001727 33.051210 33.100823
33.150593 33.200532 33.250668 33.301008 33.351581 33.402389 33.453461 33.504794
33.556417 33.608322 33.660536 33.713045 33.765874 33.819006 33.872462 33.926218
33.980296 34.034664 34.089339 34.144287 34.199520 34.254997 34.310727 34.366664
34.422813 34.479122 34.535592 34.592164 34.648838 34.705549 34.762291 34.818996
34.875655 34.932195 34.988602 35.044800 35.100774 35.156443 35.211789 35.266731
35.321248 35.375256 35.428734 35.481598 35.533825 35.585331 35.636094 35.686031
35.735121 35.783282 35.830493 35.876679 35.921817 35.965836 36.008716 36.050391
36.090843 36.130008 36.167874 36.204382 36.239520 36.273236 36.305521 36.336329
36.365652 36.393449 36.419716 36.444417 36.467549 36.489082 36.509015 36.527321
36.544001 36.559035 36.572421 36.584146 36.594208 36.602597 36.609313 36.614349
36.617704 36.619376 36.619365 36.617670 36.614293 36.609236 36.602499 36.594090
36.584010 36.572269 36.558867 36.543821 36.527131 36.508817 36.488881 36.467347
36.444217 36.419522 36.393266 36.365484 36.336182 36.305400 36.273147 36.239468
36.204374 36.167918 36.130112 36.091013 36.050636 36.009046 35.966259 35.922344
35.877320 35.831260 35.784185 35.736173 35.687246 35.637483 35.586910 35.535607
35.483600 35.430971 35.377745 35.324006 35.269776 35.215140 35.160119 35.104795
35.049187 34.993377 34.937379 34.881273 34.825070 34.768845 34.712608 34.656429
34.600312 34.544324 34.488466 34.432798 34.377317 34.322079 34.267077 34.212360
34.157916 34.103791 34.049969 33.996487 33.943329 33.890525 33.838054 33.785943
33.734167 33.682746 33.631654 33.580906 33.530474 33.480366 33.430553 33.381038
33.331792 33.282813 33.234071 33.185559 33.137246 33.089123 33.041160 32.993341
32.945639 32.898035 32.850501 32.803016 32.755556
33.133333 33.207070 33.280840 33.354681 33.428620 33.502699 33.576942 33.651389
33.726061 33.801000 33.876220 33.951765 34.027640 34.103890 34.180515 34.257557
34.335009 34.412912 34.491251 34.570064 34.649328 34.729079 34.809285 34.889978
34.971118 35.052733 35.134773 35.217262 35.300140 35.383427 35.467055 35.551037
35.635296 35.719839 35.804582 35.889525 35.974577 36.059731 36.144888 36.230037
36.315071 36.399974 36.484633 36.569026 36.653037 36.736638 36.819708 36.902219
36.984045 37.065154 37.145422 37.224813 37.303203 37.380556 37.456748 37.531744
37.605424 37.677751 37.748611 37.817970 37.885716 37.951820 38.016176 38.078758
38.139466 38.198278 38.255103 38.309921 38.362650 38.413275 38.461721 38.507976
38.551975 38.593709 38.633120 38.670203 38.704910 38.737236 38.767140 38.794621
38.819645 38.842212 38.862294 38.879893 38.894988 38.907581 38.917655 38.925214
38.930248 38.932758 38.932741 38.930197 38.925130 38.917540 38.907434 38.894812
38.879690 38.862066 38.841962 38.819376 38.794337 38.766845 38.736934 38.704607
38.669904 38.632831 38.593436 38.551725 38.507757 38.461541 38.413143 38.362575
38.309912 38.255171 38.198435 38.139723 38.079128 38.016673 37.952458 37.886509
37.818934 37.749763 37.679109 37.607004 37.533568 37.458835 37.382926 37.305879
37.227819 37.148780 37.068890 36.988184 36.906789 36.824737 36.742155 36.659071
36.575610 36.491798 36.407754 36.323500 36.239150 36.154722 36.070323 35.985965
35.901750 35.817683 35.733858 35.650275 35.567020 35.484086 35.401552 35.319403
35.237710 35.156454 35.075695 34.995410 34.915649 34.836384 34.757658 34.679436
34.601753 34.524572 34.447917 34.371749 34.296084 34.220880 34.146145 34.071835
33.997952 33.924448 33.851320 33.778520 33.706037 33.633824 33.561863 33.490110
33.418540 33.347110 33.275791 33.204544 33.133333
33.511111 33.609465 33.707866 33.806357 33.904987 34.003794 34.102832 34.202129
34.301744 34.401697 34.502047 34.602808 34.704038 34.805741 34.907975 35.010736
35.114079 35.217991 35.322523 35.427651 35.533424 35.639807 35.746844 35.854487
35.962777 36.071653 36.181151 36.291198 36.401822 36.512939 36.624570 36.736619
36.849099 36.961903 37.075036 37.188379 37.301931 37.415561 37.529259 37.642887
37.756427 37.869731 37.982775 38.095403 38.207585 38.319160 38.430090 38.540212
38.649483 38.757737 38.864929 38.970890 39.075574 39.178815 39.280564 39.380658
39.479050 39.575581 39.670205 39.762771 39.853235 39.941453 40.027387 40.110900
40.191959 40.270437 40.346307 40.419452 40.489849 40.557395 40.622069 40.683780
40.742514 40.798189 40.850796 40.900264 40.946587 40.989707 41.029618 41.066273
41.099669 41.129768 41.156568 41.180040 41.200184 41.216978 41.230422 41.240502
41.247219 41.250567 41.250544 41.247152 41.240391 41.230268 41.216783 41.199950
41.179770 41.156266 41.129436 41.099313 41.065896 41.029227 40.989307 40.946186
40.899868 40.850413 40.797828 40.742184 40.683491 40.621832 40.557221 40.489752
40.419444 40.346402 40.270650 40.192305 40.111397 40.028053 39.942307 39.854296
39.764060 39.671746 39.577395 39.481162 39.383094 39.283350 39.181980 39.079147
38.974901 38.869411 38.762723 38.655007 38.546310 38.436800 38.326520 38.215637
38.104187 37.992334 37.880109 37.767671 37.655043 37.542376 37.429689 37.317121
37.204684 37.092510 36.980601 36.869079 36.757936 36.647285 36.537111 36.427513
36.318470 36.210067 36.102277 35.995175 35.888723 35.782986 35.677921 35.573580
35.469914 35.366963 35.264676 35.163080 35.062119 34.961810 34.862096 34.762982
34.664408 34.566371 34.468810 34.371712 34.275015 34.178700 34.082705 33.987002
33.891531 33.796258 33.701127 33.606095 33.511111
33.888889 34.011895 34.134957 34.258136 34.381483 34.505063 34.628918 34.753117
34.877693 35.002718 35.128215 35.254257 35.380855 35.508083 35.635941 35.764499
35.893748 36.023755 36.154494 36.286032 36.418330 36.551447 36.685331 36.820036
36.955495 37.091753 37.228730 37.366464 37.504858 37.643942 37.783605 37.923866
38.064600 38.205817 38.347377 38.489279 38.631371 38.773643 38.915928 39.058206
39.200300 39.342182 39.483662 39.624705 39.765113 39.904842 40.043689 40.181603
40.318377 40.453955 40.588128 40.720837 40.851873 40.981174 41.108534 41.233894
41.357049 41.477943 41.596379 41.712302 41.825526 41.936000 42.043547 42.148123
42.249563 42.347827 42.442766 42.534346 42.622430 42.706991 42.787908 42.865159
42.938637 43.008326 43.074134 43.136048 43.193991 43.247955 43.297874 43.343744
43.385511 43.423174 43.456690 43.486060 43.511250 43.532262 43.549074 43.561687
43.570086 43.574274 43.574246 43.570003 43.561549 43.548883 43.532020 43.510960
43.485725 43.456314 43.422762 43.385068 43.343276 43.297388 43.247459 43.193493
43.135557 43.073659 43.007880 42.938229 42.864803 42.787617 42.706780 42.622314
42.534341 42.442890 42.348099 42.250002 42.148751 42.044386 41.937074 41.826859
41.713921 41.598311 41.480217 41.359696 41.236945 41.112024 40.985137 40.856346
40.725859 40.593738 40.460195 40.325289 40.189234 40.052084 39.914051 39.775184
39.635692 39.495618 39.355163 39.214363 39.073410 38.932332 38.791312 38.650368
38.509670 38.369228 38.229200 38.089583 37.950524 37.812009 37.674169 37.536983
37.400566 37.264887 37.130047 36.996005 36.862847 36.730524 36.599107 36.468540
36.338880 36.210063 36.082132 35.955019 35.828751 35.703258 35.578553 35.454562
35.331286 35.208650 35.086642 34.965187 34.844262 34.723792 34.603744 34.484045
34.364653 34.245497 34.126528 34.007677 33.888889
34.266667 34.414364 34.562132 34.710035 34.858150 35.006533 35.155264 35.304390
35.453995 35.604114 35.754834 35.906176 36.058227 36.210997 36.364572 36.518946
36.674203 36.830322 36.987383 37.145348 37.304294 37.464165 37.625030 37.786818
37.949590 38.113255 38.277866 38.443316 38.609646 38.776730 38.944600 39.113112
39.282284 39.451958 39.622139 39.792650 39.963486 40.134453 40.305535 40.476523
40.647388 40.817911 40.988050 41.157574 41.326433 41.494387 41.661378 41.827157
41.991660 42.154636 42.316014 42.475543 42.633148 42.788581 42.941765 43.092456
43.240580 43.385898 43.528341 43.667678 43.803844 43.936623 44.065954 44.191634
44.313611 44.431697 44.545846 44.655888 44.761785 44.863384 44.960654 45.053460
45.141779 45.225491 45.304582 45.378947 45.448579 45.513389 45.573372 45.628456
45.678640 45.723865 45.764133 45.799397 45.829659 45.854888 45.875084 45.890226
45.900317 45.905345 45.905312 45.900217 45.890062 45.874856 45.854599 45.829313
45.798997 45.763685 45.723374 45.678113 45.627899 45.572794 45.512799 45.447987
45.378364 45.304019 45.224961 45.141296 45.053040 44.960313 44.863138 44.761654
44.655890 44.546004 44.432031 44.314147 44.192397 44.066970 43.937921 43.805454
43.669630 43.530669 43.388637 43.243767 43.096128 42.945964 42.793347 42.638527
42.481579 42.322757 42.162134 41.999966 41.836324 41.671463 41.505449 41.338531
41.170770 41.002409 40.833499 40.664276 40.494778 40.325233 40.155668 39.986295
39.817131 39.648375 39.480030 39.312279 39.145114 38.978700 38.813017 38.648213
38.484255 38.321273 38.159225 37.998222 37.838210 37.679283 37.521378 37.364571
37.208790 37.054093 36.900402 36.747759 36.596080 36.445388 36.295597 36.146715
35.998651 35.851400 35.704869 35.559039 35.413817 35.269172 35.125011 34.981291
34.837925 34.694856 34.552002 34.409298 34.266667
34.644444 34.816883 34.989401 35.162086 35.335007 35.508258 35.681899 35.856027
36.030689 36.205987 36.381953 36.558690 36.736217 36.914636 37.093948 37.274255
37.455540 37.637900 37.821302 38.005836 38.191451 38.378230 38.566100 38.755138
38.945250 39.136502 39.328779 39.522136 39.716438 39.911727 40.107847 40.304825
40.502486 40.700844 40.899702 41.099060 41.298701 41.498613 41.698560 41.898514
42.098225 42.297652 42.496530 42.694804 42.892199 43.088649 43.283870 43.477786
43.670107 43.860751 44.049423 44.236038 44.420300 44.602124 44.781216 44.957489
45.130660 45.300643 45.467163 45.630140 45.789314 45.944608 46.095779 46.242759
46.385320 46.523404 46.656802 46.785466 46.909206 47.027983 47.141629 47.250113
47.353286 47.451129 47.543511 47.630418 47.711741 47.787472 47.857519 47.921878
47.980476 48.033312 48.080326 48.121521 48.156851 48.186321 48.209898 48.227586
48.239366 48.245239 48.245201 48.239251 48.227396 48.209635 48.185987 48.156451
48.121058 48.079807 48.032744 47.979866 47.921235 47.856851 47.786791 47.711058
47.629745 47.542862 47.450520 47.352733 47.249633 47.141240 47.027707 46.909063
46.785480 46.656998 46.523807 46.385958 46.243662 46.096977 45.946136 45.791204
45.632431 45.469892 45.303852 45.134391 44.961788 44.786128 44.607699 44.426589
44.243095 44.057303 43.869513 43.679812 43.488497 43.295651 43.101570 42.906328
42.710216 42.513297 42.315855 42.117943 41.919830 41.721557 41.523381 41.325329
41.127640 40.930328 40.733615 40.537499 40.342183 40.147650 39.954084 39.761454
39.569922 39.379444 39.190160 39.002014 38.815125 38.629424 38.445011 38.261806
38.079887 37.899166 37.719700 37.541395 37.364289 37.188279 37.013387 36.839505
36.666637 36.494673 36.323600 36.153308 35.983767 35.814868 35.646568 35.478760
35.311387 35.144347 34.977571 34.810964 34.644444
35.022222 35.219456 35.416786 35.614299 35.812098 36.010258 36.208889 36.408053
36.607865 36.808371 37.009688 37.211848 37.414966 37.619057 37.824237 38.030498
38.237954 38.446578 38.656477 38.867605 39.080060 39.293773 39.508834 39.725151
39.942804 40.161676 40.381835 40.603140 40.825644 41.049184 41.273798 41.499297
41.725705 41.952808 42.180614 42.408888 42.637619 42.866551 43.095658 43.324663
43.553524 43.781946 44.009873 44.236994 44.463240 44.688288 44.912056 45.134214
45.354669 45.573086 45.789366 46.003171 46.214399 46.422714 46.628013 46.829965
47.028469 47.223205 47.414075 47.600774 47.783210 47.961092 48.134339 48.302680
48.466042 48.624175 48.777018 48.924343 49.066100 49.202085 49.332260 49.456442
49.574604 49.686588 49.792375 49.891830 49.984940 50.071592 50.151781 50.225413
50.292487 50.352928 50.406737 50.453857 50.494292 50.527998 50.554979 50.575209
50.588689 50.595407 50.595363 50.588559 50.574993 50.554681 50.527619 50.493838
50.453334 50.406151 50.352285 50.291797 50.224685 50.151027 50.070823 49.984169
49.891071 49.791646 49.685904 49.573985 49.455906 49.331830 49.201784 49.065952
48.924374 48.777256 48.624651 48.466787 48.303728 48.135726 47.962854 47.785388
47.603409 47.417213 47.226890 47.032752 46.834895 46.633645 46.429104 46.221606
46.011255 45.798392 45.583119 45.365781 45.146474 44.925541 44.703074 44.479408
44.254627 44.029057 43.802770 43.576080 43.349045 43.121964 42.894879 42.668074
42.441574 42.215641 41.990284 41.765746 41.542017 41.319316 41.097619 40.877122
40.657782 40.439771 40.223032 40.007713 39.793743 39.581244 39.370133 39.160510
38.952278 38.745514 38.540114 38.336130 38.133450 37.932106 37.731979 37.533080
37.335288 37.138592 36.942869 36.748092 36.554137 36.360958 36.168434 35.976506
35.785053 35.594003 35.403242 35.212683 35.022222
35.400000 35.622095 35.844293 36.066709 36.289433 36.512588 36.736252 36.960550
37.185547 37.411373 37.638072 37.865778 38.094516 38.324418 38.555490 38.787860
39.021512 39.256570 39.492993 39.730899 39.970223 40.211072 40.453356 40.697171
40.942402 41.189130 41.437213 41.686718 41.937475 42.189535 42.442701 42.697007
42.952227 43.208378 43.465208 43.722714 43.980619 44.238902 44.497262 44.755659
45.013771 45.271540 45.528624 45.784951 46.040162 46.294171 46.546606 46.797369
47.046080 47.292632 47.536642 47.777993 48.016306 48.251460 48.483079 48.711045
48.934991 49.154800 49.370120 49.580842 49.786628 49.987380 50.182780 50.372740
50.556967 50.735384 50.907723 51.073921 51.233735 51.387115 51.533846 51.673890
51.807058 51.933324 52.052524 52.164643 52.269543 52.367214 52.457543 52.540526
52.616071 52.684179 52.744776 52.797869 52.843400 52.881375 52.911755 52.934546
52.949724 52.957292 52.957243 52.949578 52.934305 52.911422 52.880954 52.842895
52.797287 52.744124 52.683464 52.615304 52.539718 52.456705 52.366361 52.268688
52.163804 52.051718 51.932569 51.806376 51.673304 51.533379 51.386794 51.233586
51.073975 50.908011 50.735940 50.557825 50.373940 50.184360 49.989384 49.789100
49.583829 49.373672 49.158970 48.939831 48.716616 48.489439 48.258673 48.024437
47.787113 47.546819 47.303945 47.058605 46.811187 46.561801 46.310831 46.058376
45.804814 45.550232 45.294994 45.039172 44.783116 44.526883 44.270800 44.014909
43.759516 43.504642 43.250571 42.997304 42.745100 42.493942 42.244061 41.995422
41.748229 41.502429 41.258198 41.015466 40.774384 40.534863 40.297029 40.060781
39.826215 39.593218 39.361863 39.132027 38.903755 38.676918 38.451539 38.227480
38.004742 37.783187 37.562791 37.343415 37.125017 36.907457 36.690677 36.474539
36.258966 36.043829 35.829035 35.614460 35.400000
35.777778 36.024800 36.271945 36.519321 36.767060 37.015259 37.264057 37.513532
37.763830 38.015011 38.267223 38.520507 38.775011 39.030754 39.287881 39.546388
39.806416 40.067935 40.331080 40.595794 40.862202 41.130220 41.399962 41.671313
41.944376 42.219004 42.495284 42.773041 43.052343 43.332984 43.615014 43.898196
44.182559 44.467837 44.754038 45.040867 45.328309 45.616044 45.904035 46.191934
46.479687 46.766922 47.053565 47.339224 47.623808 47.906910 48.188423 48.467928
48.745306 49.020132 49.292276 49.561313 49.827107 50.089235 50.347561 50.601668
50.851425 51.096426 51.336546 51.571398 51.800864 52.024578 52.242436 52.454096
52.659466 52.858233 53.050318 53.235439 53.413533 53.584345 53.747827 53.903757
54.052099 54.192660 54.325417 54.450206 54.567014 54.675703 54.776268 54.868596
54.952689 55.028456 55.095902 55.154957 55.205628 55.247864 55.281672 55.307018
55.323908 55.332325 55.332272 55.323749 55.306755 55.281307 55.247402 55.205074
55.154318 55.095186 55.027673 54.951849 54.867711 54.775351 54.674769 54.566081
54.449290 54.324539 54.191840 54.051361 53.903125 53.747329 53.584009 53.413390
53.235522 53.050662 52.858874 52.660445 52.455454 52.244218 52.026831 51.803637
51.574744 51.340521 51.101086 50.856832 50.607886 50.354656 50.097278 49.836171
49.571474 49.303616 49.032731 48.759253 48.483311 48.205337 47.925451 47.644078
47.361325 47.077606 46.793014 46.507945 46.222474 45.936981 45.651519 45.366445
45.081792 44.797891 44.514754 44.232684 43.951671 43.671990 43.393610 43.116775
42.841432 42.567796 42.295796 42.025613 41.757159 41.490586 41.225789 40.962889
40.701768 40.442516 40.185004 39.929294 39.675246 39.422897 39.172097 38.922857
38.675024 38.428585 38.183381 37.939378 37.696419 37.454445 37.213303 36.972915
36.733132 36.493859 36.254953 36.016304 35.777778
36.155556 36.427584 36.699741 36.972169 37.244981 37.518328 37.792309 38.067080
38.342720 38.619392 38.897154 39.176168 39.456470 39.738223 40.021435 40.306267
40.592701 40.880889 41.170786 41.462536 41.756062 42.051498 42.348736 42.647894
42.948831 43.251652 43.556181 43.862503 44.170411 44.479968 44.790932 45.103346
45.416934 45.731715 46.047382 46.363928 46.681015 46.998613 47.316353 47.634183
47.951706 48.268847 48.585187 48.900629 49.214733 49.527384 49.838127 50.146832
50.453033 50.756588 51.057025 51.354194 51.647625 51.937163 52.222344 52.503014
52.778721 53.049317 53.314364 53.573725 53.826983 54.074013 54.314426 54.548109
54.774703 54.994112 55.206010 55.410315 55.606736 55.795211 55.975478 56.147493
56.311029 56.466056 56.612379 56.749981 56.878697 56.998521 57.109317 57.211085
57.303716 57.387215 57.461498 57.526571 57.582372 57.628908 57.666135 57.694059
57.712657 57.721930 57.721872 57.712483 57.693773 57.665738 57.628406 57.581771
57.525878 57.460721 57.386366 57.302805 57.210126 57.108324 56.997512 56.877689
56.748993 56.611434 56.465177 56.310241 56.146823 55.974955 55.794868 55.606606
55.410435 55.206416 54.994848 54.775810 54.549634 54.316418 54.076524 53.830066
53.577439 53.318769 53.054477 52.784703 52.509889 52.230183 51.946046 51.657630
51.365408 51.069533 50.770484 50.468410 50.163791 49.856769 49.547817 49.237066
48.924979 48.611670 48.297587 47.982827 47.667818 47.352633 47.037678 46.723005
46.408990 46.095663 45.783370 45.472117 45.162218 44.853654 44.546709 44.241337
43.937790 43.636001 43.336184 43.038254 42.742392 42.448491 42.156700 41.866895
41.579192 41.293452 41.009760 40.727964 40.448119 40.170063 39.893821 39.619226
39.346275 39.074795 38.804757 38.535988 38.268434 38.001924 37.736381 37.471636
37.207594 36.944093 36.681018 36.418215 36.155556
36.533333 36.830446 37.127707 37.425252 37.723242 38.021794 38.321079 38.621193
38.922314 39.224518 39.527984 39.832764 40.139039 40.446834 40.756326 41.067514
41.380568 41.695457 42.012344 42.331163 42.652067 42.974959 43.299975 43.626982
43.956103 44.287167 44.620276 44.955224 45.292092 45.630636 45.970914 46.312644
46.655859 47.000240 47.345795 47.692170 48.039344 48.386931 48.734882 49.082780
49.430551 49.777749 50.124276 50.469660 50.813783 51.156152 51.496630 51.834710
52.170237 52.502697 52.831926 53.157403 53.478959 53.796079 54.108589 54.415984
54.718096 55.014436 55.304842 55.588846 55.866300 56.136764 56.400104 56.655910
56.904067 57.144199 57.376211 57.599764 57.814781 58.020962 58.218248 58.406376
58.585307 58.754814 58.914871 59.065288 59.206053 59.337006 59.458146 59.569343
59.670602 59.761821 59.843009 59.914087 59.975066 60.025890 60.066568 60.097064
60.117385 60.127513 60.127450 60.117199 60.096756 60.066142 60.025351 59.974420
59.913342 59.842175 59.760909 59.669625 59.568315 59.457083 59.335926 59.204976
59.064235 58.913866 58.753880 58.584475 58.405674 58.217708 58.020618 57.814672
57.599927 57.376689 57.145036 56.905310 56.657610 56.402314 56.139540 55.869703
55.592936 55.309687 55.020105 54.724663 54.423523 54.117182 53.805809 53.489917
53.169677 52.845614 52.517898 52.187056 51.853252 51.517011 51.178486 50.838192
50.496267 50.153212 49.809146 49.464549 49.119518 48.774509 48.429594 48.085202
47.741378 47.398518 47.056643 46.716113 46.376923 46.039397 45.703503 45.369530
45.037418 44.707421 44.379453 44.053731 43.730148 43.408882 43.089809 42.773069
42.458519 42.146265 41.836150 41.528246 41.222382 40.918599 40.616716 40.316742
40.018492 39.721946 39.426914 39.133348 38.841059 38.549974 38.259906 37.970759
37.682351 37.394566 37.107229 36.820206 36.533333
36.911111 37.233397 37.555839 37.878606 38.201838 38.525716 38.850358 39.175954
39.502602 39.830494 40.159704 40.490428 40.822710 41.156746 41.492550 41.830314
42.170021 42.511855 42.855764 43.201921 43.550240 43.900880 44.253717 44.608893
44.966247 45.325899 45.687648 46.051594 46.417494 46.785424 47.155099 47.526569
47.899509 48.273939 48.649497 49.026172 49.403564 49.781632 50.159940 50.538418
50.916597 51.294380 51.671267 52.047135 52.421460 52.794096 53.164500 53.532505
53.897556 54.259471 54.617688 54.972015 55.321890 55.667119 56.007145 56.341774
56.670466 56.993035 57.308958 57.618063 57.919854 58.214175 58.500563 58.778878
59.048698 59.309903 59.562108 59.805218 60.038888 60.263046 60.477389 60.681864
60.876210 61.060395 61.234194 61.397591 61.550400 61.692617 61.824089 61.944821
62.054693 62.153713 62.241789 62.318934 62.385077 62.440231 62.484349 62.517440
62.539478 62.550468 62.550402 62.539280 62.517112 62.483894 62.439656 62.384388
62.318140 62.240901 62.152743 62.053653 61.943729 61.822960 61.691471 61.549258
61.396478 61.233133 61.059415 60.875341 60.681138 60.476839 60.262711 60.038807
59.805433 59.562665 59.310850 59.050086 58.780763 58.503000 58.217227 57.923584
57.622540 57.314253 56.999223 56.677626 56.349990 56.016501 55.677710 55.333809
54.985362 54.632565 54.275989 53.915825 53.552644 53.186628 52.818343 52.447953
52.076012 51.702666 51.328447 50.953480 50.578273 50.202922 49.827908 49.453298
49.079540 48.706671 48.335104 47.964846 47.596270 47.229354 46.864433 46.501455
46.140714 45.782131 45.425959 45.072094 44.720747 44.371793 44.025402 43.681428
43.340002 43.000961 42.664399 42.330136 41.998232 41.668494 41.340947 41.015392
40.691819 40.370024 40.049968 39.731444 39.414384 39.098583 38.783947 38.470273
38.157446 37.845270 37.533608 37.222273 36.911111
37.288889 37.636435 37.984159 38.332222 38.680815 39.030079 39.380217 39.731346
40.083677 40.437302 40.792434 41.149138 41.507627 41.867938 42.230278 42.594650
42.961258 43.330069 43.701274 44.074804 44.450839 44.829269 45.210255 45.593649
45.979591 46.367890 46.758665 47.151678 47.547024 47.944423 48.343938 48.745247
49.148383 49.552978 49.959036 50.366145 50.774275 51.182976 51.592185 52.001412
52.410563 52.819114 53.226942 53.633491 54.038610 54.441721 54.842649 55.240796
55.635969 56.027558 56.415357 56.798753 57.177529 57.551079 57.919185 58.281250
58.637063 58.986046 59.327999 59.662371 59.988976 60.307299 60.617173 60.918121
61.210001 61.492375 61.765128 62.027868 62.280504 62.522690 62.754359 62.975211
63.185202 63.384076 63.571808 63.748183 63.913194 64.066662 64.208593 64.338843
64.457425 64.564227 64.659265 64.742455 64.813815 64.873283 64.920875 64.956552
64.980324 64.992173 64.992102 64.980114 64.956204 64.920394 64.872675 64.813087
64.741616 64.658326 64.563201 64.456327 64.337690 64.207403 64.065456 63.911995
63.747016 63.570700 63.383056 63.184304 62.974467 62.753808 62.522370 62.280460
62.028145 61.765774 61.493442 61.211544 60.920199 60.619849 60.310636 59.993045
59.667243 59.333754 58.992763 58.644828 58.290151 57.929317 57.562539 57.190421
56.813181 56.431436 56.045402 55.655701 55.262540 54.866538 54.467889 54.067200
53.664646 53.260816 52.855861 52.450345 52.044392 51.638537 51.232873 50.827901
50.423681 50.020676 49.618915 49.218818 48.820380 48.423982 48.029586 47.637526
47.247736 46.860505 46.475737 46.093678 45.714206 45.337522 44.963480 44.592239
44.223631 43.857776 43.494487 43.133843 42.775643 42.419929 42.066489 41.715328
41.366227 41.019157 40.673895 40.330380 39.988388 39.647831 39.308485 38.970237
38.632868 38.296241 37.960148 37.624429 37.288889
37.666667 38.039572 38.412661 38.786134 39.160157 39.534943 39.910633 40.287451
40.665512 41.045046 41.426140 41.809024 42.193756 42.580565 42.969473 43.360704
43.754245 44.150309 44.548845 44.950054 45.353843 45.760397 46.169579 46.581554
46.996141 47.413482 47.833349 48.255857 48.680731 49.108056 49.537510 49.969146
50.402594 50.837872 51.274565 51.712655 52.151680 52.591586 53.031871 53.472443
53.912759 54.352696 54.791674 55.229536 55.665674 56.099904 56.531590 56.960527
57.386063 57.807973 58.225596 58.638697 59.046614 59.449106 59.845521 60.235620
60.618769 60.994736 61.362914 61.723087 62.074680 62.417498 62.751007 63.075036
63.389096 63.693043 63.986437 64.269163 64.540830 64.801352 65.050389 65.287881
65.513537 65.727322 65.928988 66.118524 66.295724 66.460591 66.612959 66.752842
66.880110 66.994782 67.096757 67.186059 67.262612 67.326439 67.377488 67.415776
67.441274 67.453990 67.453916 67.441052 67.415410 67.376982 67.325799 67.261847
67.185177 67.095771 66.993706 66.878959 66.751635 66.611714 66.459332 66.294474
66.117310 65.927840 65.726270 65.512616 65.287129 65.049844 64.801058 64.540831
64.269510 63.987180 63.694240 63.390804 63.077319 62.753929 62.421132 62.079097
61.728368 61.369139 61.001994 60.627149 60.245220 59.856438 59.461448 59.060488
58.654220 58.242886 57.827156 57.407267 56.983890 56.557250 56.128008 55.696371
55.262985 54.828033 54.392136 53.955449 53.518563 53.081602 52.645120 52.209206
51.774376 51.340682 50.908597 50.478137 50.049729 49.623353 49.199390 48.777785
48.358871 47.942559 47.529136 47.118482 46.710837 46.306052 45.904321 45.505473
45.109654 44.716673 44.326632 43.939323 43.554807 43.172860 42.793505 42.416509
42.041855 41.669305 41.298808 40.930121 40.563162 40.197689 39.833590 39.470627
39.108662 38.747465 38.386873 38.026669 37.666667
38.044444 38.442801 38.841366 39.240328 39.639911 40.040282 40.441675 40.844233
41.248199 41.653684 42.060938 42.470039 42.881237 43.294577 43.710302 44.128423
44.549174 44.972524 45.398698 45.827622 46.259502 46.694223 47.131969 47.572578
48.016213 48.462659 48.912055 49.364135 49.819006 50.276354 50.736250 51.198328
51.662624 52.128721 52.596617 53.065845 53.536362 54.007654 54.479640 54.951759
55.423891 55.895434 56.366233 56.835648 57.303490 57.769090 58.232231 58.692219
59.148816 59.601313 60.049453 60.492525 60.930261 61.361955 61.787338 62.205717
62.616830 63.020009 63.415005 63.801183 64.178315 64.545806 64.903454 65.250711
65.587405 65.913041 66.227478 66.530275 66.821325 67.100239 67.366945 67.621107
67.862681 68.091384 68.307195 68.509881 68.699440 68.875683 69.038624 69.188111