# vtk DataFile Version 3.0
Steady-state temperature (Jacobi)
ASCII
DATASET STRUCTURED_POINTS
DIMENSIONS 181 181 1
ORIGIN 0.0 0.0 0.0
SPACING 0.05 0.05 1.0
POINT_DATA 32761
SCALARS Temperature float 1
LOOKUP_TABLE default
32.000000 32.000000 32.000000 32.000000 32.000000 32.000000 32.000000 32.000000
32.000000 32.000000 32.000000 32.000000 32.000000 32.000000 32.000000 32.000000
32.000000 32.000000 32.000000 32.000000 32.000000 32.000000 32.000000 32.000000
32.000000 32.000000 32.000000 32.000000 32.000000 32.000000 32.000000 32.000000
32.000000 32.000000 32.000000 32.000000 32.000000 32.000000 32.000000 32.000000
32.000000 32.000000 32.000000 32.000000 32.000000 32.000000 32.000000 32.000000
32.000000 32.000000 32.000000 32.000000 32.000000 32.000000 32.000000 32.000000
32.000000 32.000000 32.000000 32.000000 32.000000 32.000000 32.000000 32.000000
32.000000 32.000000 32.000000 32.000000 32.000000 32.000000 32.000000 32.000000
32.000000 32.000000 32.000000 32.000000 32.000000 32.000000 32.000000 32.000000
32.000000 32.000000 32.000000 32.000000 32.000000 32.000000 32.000000 32.000000
32.000000 32.000000 32.000000 32.000000 32.000000 32.000000 32.000000 32.000000
32.000000 32.000000 32.000000 32.000000 32.000000 32.000000 32.000000 32.000000
32.000000 32.000000 32.000000 32.000000 32.000000 32.000000 32.000000 32.000000
32.000000 32.000000 32.000000 32.000000 32.000000 32.000000 32.000000 32.000000
32.000000 32.000000 32.000000 32.000000 32.000000 32.000000 32.000000 32.000000
32.000000 32.000000 32.000000 32.000000 32.000000 32.000000 32.000000 32.000000
32.000000 32.000000 32.000000 32.000000 32.000000 32.000000 32.000000 32.000000
32.000000 32.000000 32.000000 32.000000 32.000000 32.000000 32.000000 32.000000
32.000000 32.000000 32.000000 32.000000 32.000000 32.000000 32.000000 32.000000
32.000000 32.000000 32.000000 32.000000 32.000000 32.000000 32.000000 32.000000
32.000000 32.000000 32.000000 32.000000 32.000000 32.000000 32.000000 32.000000
32.000000 32.000000 32.000000 32.000000 32.000000
32.377778 32.407032 32.436292 32.465564 32.494852 32.524164 32.553503 32.582876
32.612287 32.641740 32.671240 32.700792 32.730397 32.760061 32.789784 32.819571
32.849419 32.879334 32.909312 32.939356 32.969462 32.999632 33.029858 33.060142
33.090476 33.120858 33.151278 33.181734 33.212214 33.242714 33.273219 33.303724
33.334212 33.364677 33.395100 33.425471 33.455771 33.485990 33.516104 33.546101
33.575959 33.605663 33.635188 33.664519 33.693630 33.722504 33.751114 33.779444
33.807465 33.835160 33.862500 33.889468 33.916036 33.942185 33.967888 33.993127
34.017876 34.042118 34.065826 34.088984 34.111568 34.133564 34.154947 34.175705
34.195816 34.215269 34.234043 34.252128 34.269507 34.286171 34.302105 34.317301
34.331745 34.345433 34.358351 34.370496 34.381858 34.392434 34.402214 34.411198
34.419378 34.426753 34.433317 34.439070 34.444008 34.448130 34.451433 34.453918
34.455582 34.456426 34.456449 34.455652 34.454034 34.451597 34.448341 34.444269
34.439381 34.433680 34.427168 34.419848 34.411725 34.402800 34.393081 34.382569
34.371274 34.359199 34.346353 34.332743 34.318379 34.303267 34.287422 34.270850
34.253568 34.235585 34.216918 34.197578 34.177585 34.156951 34.135697 34.113837
34.091395 34.068386 34.044833 34.020755 33.996176 33.971114 33.945596 33.919640
33.893274 33.866516 33.839395 33.811927 33.784143 33.756059 33.727704 33.699095
33.670259 33.641213 33.611984 33.582586 33.553045 33.523375 33.493599 33.463731
33.433792 33.403793 33.373755 33.343687 33.313606 33.283522 33.253449 33.223394
33.193371 33.163385 33.133446 33.103559 33.073733 33.043968 33.014274 32.984649
32.955101 32.925626 32.896230 32.866910 32.837668 32.808500 32.779407 32.750385
32.721433 32.692546 32.663722 32.634954 32.606240 32.577573 32.548950 32.520363
32.491808 32.463278 32.434767 32.406269 32.377778
32.755556 32.814068 32.872591 32.931138 32.989719 33.048346 33.107029 33.165778
33.224604 33.283515 33.342521 33.401628 33.460846 33.520177 33.579632 33.639208
33.698916 33.758750 33.818717 33.878811 33.939035 33.999380 34.059847 34.120422
34.181104 34.241876 34.302734 34.363655 34.424634 34.485643 34.546674 34.607695
34.668695 34.729637 34.790506 34.851263 34.911888 34.972339 35.032594 35.092605
35.152348 35.211773 35.270852 35.329531 35.387782 35.445549 35.502799 35.559477
35.615549 35.670958 35.725668 35.779622 35.832786 35.885103 35.936538 35.987034
36.036559 36.085058 36.132500 36.178832 36.224025 36.268029 36.310818 36.352347
36.392589 36.431504 36.469071 36.505251 36.540025 36.573361 36.605242 36.635640
36.664541 36.691920 36.717767 36.742061 36.764794 36.785947 36.805515 36.823485
36.839850 36.854601 36.867733 36.879240 36.889118 36.897362 36.903971 36.908940
36.912270 36.913957 36.914004 36.912409 36.909173 36.904298 36.897786 36.889640
36.879861 36.868458 36.855431 36.840790 36.824538 36.806687 36.787241 36.766215
36.743617 36.719462 36.693761 36.666535 36.637795 36.607565 36.575861 36.542710
36.508131 36.472155 36.434803 36.396112 36.356106 36.314825 36.272295 36.228562
36.183653 36.137619 36.090489 36.042315 35.993130 35.942989 35.891925 35.839995
35.787234 35.733699 35.679426 35.624473 35.568874 35.512688 35.455948 35.398711
35.341011 35.282901 35.224414 35.165601 35.106491 35.047135 34.987558 34.927806
34.867903 34.807892 34.747792 34.687642 34.627460 34.567279 34.507113 34.446993
34.386928 34.326946 34.267052 34.207270 34.147601 34.088066 34.028663 33.969409
33.910298 33.851344 33.792541 33.733896 33.675402 33.617063 33.558869 33.500822
33.442910 33.385133 33.327477 33.269939 33.212506 33.155170 33.097919 33.040743
32.983628 32.926566 32.869541 32.812542 32.755556
33.133333 33.221110 33.308904 33.396733 33.484614 33.572564 33.660597 33.748732
33.836980 33.925360 34.013879 34.102555 34.191392 34.280407 34.369600 34.458986
34.548560 34.638334 34.728300 34.818467 34.908821 34.999368 35.090088 35.180984
35.272030 35.363224 35.454536 35.545959 35.637456 35.729014 35.820592 35.912173
36.003706 36.095172 36.186513 36.277704 36.368684 36.459420 36.549846 36.639925
36.729586 36.818788 36.907455 36.995541 37.082968 37.169686 37.255614 37.340700
37.424860 37.508042 37.590160 37.671160 37.750957 37.829499 37.906700 37.982509
38.056844 38.129654 38.200861 38.270417 38.338247 38.404307 38.468528 38.530869
38.591266 38.649683 38.706062 38.760370 38.812557 38.862594 38.910437 38.956062
38.999431 39.040524 39.079309 39.115769 39.149878 39.181625 39.210985 39.237951
39.262505 39.284641 39.304344 39.321611 39.336431 39.348802 39.358716 39.366173
39.371168 39.373701 39.373770 39.371377 39.366522 39.359207 39.349437 39.337213
39.322543 39.305430 39.285886 39.263914 39.239530 39.212741 39.183564 39.152010
39.118101 39.081849 39.043284 39.002421 38.959293 38.913920 38.866342 38.816583
38.764688 38.710686 38.654629 38.596549 38.536506 38.474536 38.410704 38.345050
38.277646 38.208537 38.137797 38.065475 37.991650 37.916374 37.839729 37.761767
37.682574 37.602203 37.520742 37.438243 37.354792 37.270443 37.185282 37.099359
37.012758 36.925526 36.837746 36.749462 36.660751 36.571654 36.482244 36.392558
36.302662 36.212589 36.122401 36.032125 35.941816 35.851496 35.761216 35.670991
35.580867 35.490852 35.400987 35.311275 35.221751 35.132414 35.043291 34.954379
34.865697 34.777239 34.689020 34.601029 34.513275 34.425745 34.338444 34.251355
34.164479 34.077797 33.991305 33.904984 33.818827 33.732811 33.646927 33.561152
33.475474 33.389871 33.304327 33.218820 33.133333
33.511111 33.628163 33.745238 33.862359 33.979551 34.096833 34.214231 34.331760
34.449448 34.567305 34.685356 34.803610 34.922090 35.040798 35.159756 35.278962
35.398433 35.518160 35.638159 35.758414 35.878936 35.999702 36.120718 36.241954
36.363411 36.485052 36.606870 36.728821 36.850892 36.973030 37.095217 37.217390
37.339524 37.461550 37.583436 37.705102 37.826511 37.947577 38.068254 38.188449
38.308112 38.427142 38.545483 38.663029 38.779720 38.895445 39.010139 39.123690
39.236028 39.347039 39.456653 39.564755 39.671273 39.776094 39.879148 39.980322
40.079548 40.176719 40.271768 40.364594 40.455133 40.543291 40.629011 40.712202
40.792814 40.870765 40.946009 41.018475 41.088121 41.154883 41.218729 41.279601
41.337472 41.392294 41.444045 41.492684 41.538194 41.580542 41.619714 41.655683
41.688441 41.717965 41.744251 41.767280 41.787050 41.803549 41.816774 41.826719
41.833382 41.836760 41.836852 41.833660 41.827184 41.817428 41.804394 41.788091
41.768521 41.745697 41.719623 41.690317 41.657786 41.622052 41.583125 41.541034
41.495790 41.447430 41.395971 41.341456 41.283905 41.223370 41.159877 41.093485
41.024228 40.952171 40.877355 40.799853 40.719713 40.637016 40.551815 40.464200
40.374228 40.281998 40.187571 40.091051 39.992505 39.892041 39.789729 39.685681
39.579968 39.472706 39.363967 39.253865 39.142473 39.029906 38.916233 38.801569
38.685978 38.569572 38.452413 38.334607 38.216211 38.097327 37.978004 37.858338
37.738374 37.618198 37.497851 37.377410 37.256908 37.136417 37.015960 36.895601
36.775358 36.655286 36.535396 36.415734 36.296305 36.177148 36.058261 35.939675
35.821383 35.703408 35.585738 35.468389 35.351345 35.234615 35.118179 35.002040
34.886175 34.770582 34.655234 34.540123 34.425224 34.310522 34.195990 34.081610
33.967356 33.853205 33.739130 33.625108 33.511111
33.888889 34.035229 34.181598 34.328027 34.474541 34.621174 34.767947 34.914893
35.062029 35.209388 35.356983 35.504844 35.652978 35.801413 35.950149 36.099212
36.248595 36.398319 36.548368 36.698759 36.849470 37.000509 37.151845 37.303482
37.455379 37.607532 37.759889 37.912440 38.065123 38.217920 38.370758 38.523609
38.676393 38.829071 38.981553 39.133793 39.285689 39.437187 39.588177 39.738597
39.888327 40.037298 40.185383 40.332506 40.478533 40.623384 40.766919 40.909053
41.049645 41.188606 41.325792 41.461114 41.594427 41.725643 41.854621 41.981271
42.105458 42.227095 42.346051 42.462245 42.575554 42.685902 42.793173 42.897299
42.998173 43.095734 43.189886 43.280575 43.367715 43.451262 43.531138 43.607308
43.679704 43.748298 43.813033 43.873885 43.930809 43.983786 44.032779 44.077774
44.118742 44.155673 44.188544 44.217349 44.242071 44.262707 44.279245 44.291682
44.300014 44.304238 44.304354 44.300361 44.292263 44.280061 44.263762 44.243370
44.218898 44.190349 44.157743 44.121085 44.080400 44.035699 43.987012 43.934354
43.877763 43.817259 43.752889 43.684678 43.612682 43.536933 43.457498 43.374414
43.287760 43.197581 43.103965 43.006965 42.906681 42.803172 42.696549 42.586879
42.474281 42.358830 42.240652 42.119828 41.996492 41.870729 41.742678 41.612428
41.480122 41.345850 41.209757 41.071933 40.932524 40.791619 40.649360 40.505835
40.361183 40.215486 40.068879 39.921437 39.773291 39.624509 39.475212 39.325462
39.175373 39.024996 38.874438 38.723740 38.572999 38.422248 38.271574 38.121001
37.970604 37.820400 37.670454 37.520774 37.371414 37.222376 37.073702 36.925387
36.777465 36.629923 36.482786 36.336036 36.189688 36.043719 35.898137 35.752915
35.608051 35.463516 35.319303 35.175378 35.031728 34.888318 34.745130 34.602128
34.459287 34.316573 34.173958 34.031407 33.888889
34.266667 34.442311 34.617992 34.793743 34.969601 35.145598 35.321770 35.498145
35.674760 35.851634 36.028805 36.206286 36.384113 36.562289 36.740848 36.919786
37.099131 37.278871 37.459028 37.639579 37.820541 38.001882 38.183609 38.365680
38.548095 38.730798 38.913781 39.096976 39.280366 39.463871 39.647463 39.831049
40.014591 40.197985 40.381182 40.564064 40.746573 40.928579 41.110015 41.290740
41.470676 41.649674 41.827646 42.004435 42.179946 42.354015 42.526541 42.697354
42.866349 43.033355 43.198262 43.360898 43.521153 43.678857 43.833900 43.986116
44.135399 44.281586 44.424578 44.564219 44.700417 44.833026 44.961959 45.087083
45.208319 45.325545 45.438694 45.547654 45.652367 45.752736 45.848712 45.940210
46.027190 46.109579 46.187346 46.260431 46.328808 46.392429 46.451274 46.505304
46.554506 46.598849 46.638325 46.672909 46.702597 46.727372 46.747230 46.762162
46.772165 46.777237 46.777375 46.772581 46.762857 46.748208 46.728636 46.704154
46.674765 46.640488 46.601329 46.557313 46.508450 46.454772 46.396294 46.333056
46.265078 46.192411 46.115082 46.033151 45.946651 45.855658 45.760211 45.660397
45.556267 45.447918 45.335412 45.218860 45.098330 44.973948 44.845791 44.713996
44.578651 44.439901 44.297842 44.152631 44.004368 43.853218 43.699285 43.542742
43.383695 43.222319 43.058722 42.893082 42.725505 42.556167 42.385173 42.212695
42.038834 41.863756 41.687556 41.510395 41.332359 41.153599 40.974195 40.794288
40.613946 40.433301 40.252411 40.071395 39.890302 39.709238 39.528241 39.347406
39.166759 38.986382 38.806291 38.626557 38.447186 38.268235 38.089702 37.911633
37.734016 37.556886 37.380224 37.204054 37.028351 36.853128 36.678356 36.504036
36.330135 36.156648 35.983535 35.810785 35.638356 35.466228 35.294359 35.122722
34.951275 34.779987 34.608814 34.437721 34.266667
34.644444 34.849413 35.054424 35.259520 35.464738 35.670125 35.875713 36.081547
36.287655 36.494081 36.700844 36.907988 37.115524 37.323491 37.531891 37.740760
37.950089 38.159909 38.370198 38.580981 38.792227 39.003949 39.216103 39.428697
39.641672 39.855023 40.068681 40.282629 40.496782 40.711113 40.925522 41.139971
41.354344 41.568591 41.782581 41.996253 42.209461 42.422131 42.634107 42.845300
43.055542 43.264736 43.472702 43.679332 43.884437 44.087903 44.289533 44.489205
44.686720 44.881950 45.074693 45.264822 45.452132 45.636497 45.817717 45.995665
46.170148 46.341046 46.508171 46.671410 46.830586 46.985594 47.136271 47.282519
47.424188 47.561194 47.693400 47.820732 47.943069 48.060349 48.172466 48.279367
48.380963 48.477212 48.568037 48.653405 48.733255 48.807560 48.876271 48.939369
48.996814 49.048595 49.094680 49.135062 49.169718 49.198644 49.221825 49.239258
49.250935 49.256855 49.257016 49.251419 49.240067 49.222963 49.200116 49.171531
49.137223 49.097199 49.051483 49.000083 48.943033 48.880345 48.812062 48.738202
48.658818 48.573936 48.483622 48.387907 48.286871 48.180557 48.069057 47.952425
47.830767 47.704149 47.572692 47.436471 47.295626 47.150242 47.000472 46.846413
46.688230 46.526032 46.359995 46.190236 46.016942 45.840236 45.660313 45.477301
45.291401 45.102741 44.911528 44.717889 44.522030 44.324078 44.124236 43.922626
43.719445 43.514811 43.308914 43.101861 42.893836 42.684935 42.475331 42.265109
42.054430 41.843367 41.632069 41.420596 41.209082 40.997575 40.786194 40.574976
40.364025 40.153364 39.943083 39.733194 39.523772 39.314818 39.106392 38.898485
38.691145 38.484354 38.278144 38.072489 37.867412 37.662878 37.458897 37.255431
37.052479 36.849996 36.647971 36.446359 36.245139 36.044261 35.843699 35.643402
35.443336 35.243450 35.043705 34.844051 34.644444
35.022222 35.256537 35.490901 35.725361 35.959968 36.194762 36.429798 36.665109
36.900749 37.136743 37.373144 37.609969 37.847267 38.085045 38.323347 38.562170
38.801552 39.041479 39.281980 39.523027 39.764643 40.006785 40.249465 40.492626
40.736270 40.980324 41.224776 41.469537 41.714585 41.959812 42.205182 42.450572
42.695931 42.941118 43.186068 43.430626 43.674710 43.918150 44.160851 44.402626
44.643370 44.882881 45.121042 45.357640 45.592547 45.825541 46.056486 46.285152
46.511397 46.734988 46.955778 47.173534 47.388106 47.599264 47.806859 48.010667
48.210543 48.406269 48.597710 48.784656 48.966980 49.144488 49.317063 49.484524
49.646768 49.803630 49.955019 50.100788 50.240859 50.375103 50.503455 50.625804
50.742096 50.852237 50.956185 51.053863 51.145238 51.230246 51.308865 51.381043
51.446765 51.505990 51.558710 51.604893 51.644535 51.677615 51.704128 51.724063
51.737418 51.744188 51.744371 51.737971 51.724986 51.705426 51.679293 51.646602
51.607358 51.561582 51.509283 51.450493 51.385221 51.313512 51.235380 51.150881
51.060037 50.962916 50.859549 50.750018 50.634365 50.512688 50.385040 50.251535
50.112240 49.967285 49.816752 49.660787 49.499485 49.333010 49.161470 48.985047
48.803858 48.618101 48.427904 48.233479 48.034961 47.832573 47.626459 47.416847
47.203886 46.987810 46.768767 46.546996 46.322642 46.095942 45.867040 45.636167
45.403459 45.169142 44.933344 44.696281 44.458070 44.218916 43.978923 43.738283
43.497088 43.255513 43.013638 42.771622 42.529530 42.287504 42.045594 41.803926
41.562537 41.321534 41.080939 40.840845 40.601261 40.362261 40.123842 39.886063
39.648910 39.412427 39.176589 38.941426 38.706903 38.473038 38.239788 38.007158
37.775100 37.543606 37.312624 37.082136 36.852085 36.622445 36.393157 36.164185
35.935472 35.706974 35.478633 35.250401 35.022222
35.400000 35.663686 35.927426 36.191278 36.455293 36.719530 36.984033 37.248861
37.514051 37.779661 38.045719 38.312279 38.579360 38.847012 39.115240 39.384090
39.653554 39.923671 40.194416 40.465822 40.737848 41.010515 41.283768 41.557615
41.831983 42.106869 42.382180 42.657898 42.933915 43.210195 43.486610 43.763112
44.039551 44.315862 44.591878 44.867517 45.142594 45.417010 45.690563 45.963139
46.234520 46.504576 46.773075 47.039876 47.304734 47.567497 47.827910 48.085813
48.340945 48.593139 48.842132 49.087755 49.329742 49.567927 49.802048 50.031940
50.257351 50.478121 50.694009 50.904864 51.110457 51.310651 51.505233 51.694077
51.876990 52.053861 52.224514 52.388854 52.546727 52.698051 52.842694 52.980587
53.111618 53.235734 53.352839 53.462892 53.565816 53.661581 53.750123 53.831423
53.905431 53.972133 54.031493 54.083501 54.128132 54.165380 54.195228 54.217674
54.232708 54.240329 54.240535 54.233327 54.218710 54.196684 54.167264 54.130451
54.086267 54.034716 53.975829 53.909614 53.836113 53.755339 53.667344 53.572150
53.469823 53.360393 53.243943 53.120512 52.990200 52.853060 52.709209 52.558715
52.401715 52.238290 52.068599 51.892737 51.710883 51.523148 51.329730 51.130755
50.926439 50.716921 50.502432 50.283124 50.059243 49.830946 49.598492 49.362046
49.121870 48.878136 48.631110 48.380961 48.127958 47.872266 47.614152 47.353773
47.091391 46.827155 46.561315 46.294012 46.025482 45.755853 45.485348 45.214079
44.942254 44.669970 44.397415 44.124670 43.851907 43.579189 43.306668 43.034392
42.762492 42.491001 42.220032 41.949601 41.679801 41.410635 41.142179 40.874420
40.607418 40.341148 40.075651 39.810894 39.546901 39.283630 39.021090 38.759232
38.498051 38.237490 37.977535 37.718123 37.459227 37.200783 36.942754 36.685074
36.427698 36.170559 35.913605 35.656772 35.400000
35.777778 36.070860 36.364005 36.657273 36.950731 37.244431 37.538441 37.832806
38.127594 38.422840 38.718610 39.014928 39.311857 39.609408 39.907637 40.206543
40.506175 40.806515 41.107604 41.409407 41.711955 42.015195 42.319145 42.623735
42.928966 43.234750 43.541074 43.847826 44.154980 44.462402 44.770046 45.077759
45.385477 45.693025 46.000320 46.307167 46.613463 46.918994 47.223639 47.527164
47.829432 48.130191 48.429290 48.726460 49.021538 49.314242 49.604397 49.891713
50.176007 50.456983 50.734452 51.008118 51.277790 51.543174 51.804082 52.060224
52.311419 52.557389 52.797960 53.032867 53.261949 53.484960 53.701749 53.912092
54.115855 54.312834 54.502912 54.685907 54.861721 55.030194 55.191246 55.344739
55.490609 55.628741 55.759084 55.881544 55.996083 56.102624 56.201143 56.291577
56.373911 56.448098 56.514127 56.571964 56.621604 56.663022 56.696218 56.721175
56.737893 56.746366 56.746594 56.738579 56.722322 56.697831 56.665109 56.624173
56.575027 56.517698 56.452192 56.378547 56.296774 56.206922 56.109010 56.003102
55.889225 55.767458 55.637840 55.500469 55.355396 55.202739 55.042565 54.875014
54.700168 54.518190 54.329179 54.133321 53.930733 53.721623 53.506125 53.284469
53.056805 52.823383 52.584366 52.340021 52.090523 51.836154 51.577098 51.313645
51.045986 50.774418 50.499133 50.220431 49.938501 49.653643 49.366040 49.075987
48.783658 48.489339 48.193193 47.895494 47.596391 47.296142 46.994883 46.692851
46.390166 46.087049 45.783598 45.480014 45.176379 44.872871 44.569553 44.266582
43.964002 43.661948 43.360448 43.059616 42.759460 42.460075 42.161455 41.863671
41.566706 41.270612 40.975356 40.680975 40.387424 40.094722 39.802815 39.511707
39.221337 38.931692 38.642706 38.354354 38.066565 37.779302 37.492492 37.206087
36.920014 36.634217 36.348622 36.063166 35.777778
36.155556 36.478063 36.800639 37.123356 37.446279 37.769482 38.093021 38.416970
38.741377 39.066316 39.391820 39.717962 40.044763 40.372289 40.700548 41.029598
41.359431 41.690096 42.021568 42.353884 42.687001 43.020945 43.355649 43.691125
44.027287 44.364131 44.701546 45.039511 45.377893 45.716651 46.055629 46.394766
46.733882 47.072896 47.411603 47.749901 48.087564 48.424468 48.760365 49.095113
49.428441 49.760190 50.090070 50.417906 50.743393 51.066342 51.386435 51.703471
52.017127 52.327191 52.633337 52.935351 53.232904 53.525784 53.813668 54.096347
54.373508 54.644949 54.910371 55.169586 55.422311 55.668371 55.907507 56.139560
56.364294 56.581570 56.791174 56.992990 57.186830 57.372595 57.550124 57.719337
57.880098 58.032345 58.175964 58.310910 58.437091 58.554473 58.662984 58.762603
58.853273 58.934980 59.007683 59.071375 59.126026 59.171632 59.208175 59.235653
59.254055 59.263383 59.263634 59.254808 59.236910 59.209943 59.173920 59.128842
59.074734 59.011598 58.939470 58.858355 58.768302 58.669322 58.561478 58.444790
58.319336 58.185150 58.042327 57.890915 57.731030 57.562735 57.386172 57.201419
57.008644 56.807945 56.599513 56.383468 56.160027 55.929328 55.691613 55.447041
55.195876 54.938293 54.674580 54.404924 54.129631 53.848902 53.563054 53.272298
52.976959 52.677252 52.373510 52.065945 51.754890 51.440556 51.123271 50.803237
50.480774 50.156073 49.829443 49.501059 49.171214 48.840068 48.507896 48.174839
47.841151 47.506952 47.172476 46.837822 46.503199 46.168686 45.834468 45.500605
45.167256 44.834459 44.502353 44.170955 43.840380 43.510627 43.181789 42.853849
42.526877 42.200841 41.875790 41.551681 41.228543 40.906319 40.585022 40.264586
39.945006 39.626210 39.308176 38.990827 38.674128 38.357998 38.042390 37.727221
37.412434 37.097945 36.783689 36.469583 36.155556
36.533333 36.885294 37.237333 37.589525 37.941953 38.294681 38.647795 39.001350
39.355431 39.710084 40.065388 40.421378 40.778128 41.135657 41.494034 41.853260
42.213396 42.574425 42.936397 43.299273 43.663092 44.027795 44.393402 44.759833
45.127093 45.495075 45.863767 46.233037 46.602852 46.973054 47.343589 47.714273
48.085028 48.455646 48.826025 49.195930 49.565237 49.933685 50.301129 50.667283
51.031980 51.394915 51.755899 52.114608 52.470837 52.824245 53.174615 53.521593
53.864950 54.204327 54.539488 54.870071 55.195839 55.516432 55.831616 56.141039
56.444474 56.741582 57.032148 57.315850 57.592487 57.861761 58.123488 58.377396
58.623321 58.861017 59.090344 59.311083 59.523116 59.726256 59.920404 60.105401
60.281172 60.447581 60.604574 60.752039 60.889938 61.018182 61.136746 61.245561
61.344611 61.433845 61.513255 61.582803 61.642487 61.692281 61.732185 61.762183
61.782277 61.792459 61.792731 61.783094 61.763550 61.734107 61.694767 61.645549
61.586454 61.517511 61.438725 61.350137 61.251756 61.143637 61.025798 60.898310
60.761202 60.614564 60.458438 60.292938 60.118121 59.934125 59.741027 59.538992
59.328117 59.108596 58.880547 58.644193 58.399675 58.147245 57.887066 57.619415
57.344478 57.062556 56.773853 56.478694 56.177294 55.869999 55.557034 55.238758
54.915405 54.587339 54.254798 53.918149 53.577627 53.233598 52.886291 52.536062
52.183131 51.827843 51.470402 51.111139 50.750240 50.388017 50.024635 49.660386
49.295413 48.929982 48.564217 48.198356 47.832501 47.466864 47.101521 46.736660
46.372335 46.008706 45.645805 45.283766 44.922601 44.562418 44.203210 43.845060
43.487945 43.131925 42.776960 42.423089 42.070258 41.718485 41.367706 41.017920
40.669052 40.321084 39.973936 39.627573 39.281909 38.936896 38.592443 38.248493
37.904953 37.561753 37.218804 36.876027 36.533333
36.911111 37.292556 37.674086 38.055790 38.437745 38.820044 39.202754 39.585970
39.969747 40.354177 40.739305 41.125216 41.511942 41.899561 42.288087 42.677592
43.068069 43.459579 43.852095 44.245666 44.640241 45.035855 45.432431 45.829988
46.228424 46.627736 47.027797 47.428583 47.829939 48.231816 48.634033 49.036516
49.439054 49.841549 50.243761 50.645566 51.046695 51.447000 51.846184 52.244076
52.640352 53.034819 53.427130 53.817071 54.204276 54.588513 54.969401 55.346694
55.720000 56.089063 56.453487 56.813010 57.167236 57.515904 57.858623 58.195139
58.525072 58.848177 59.164094 59.472592 59.773331 60.066102 60.350590 60.626607
60.893870 61.152213 61.401384 61.641243 61.871571 62.092252 62.303099 62.504020
62.694859 62.875546 63.045952 63.206029 63.355673 63.494850 63.623482 63.741547
63.848985 63.945785 64.031904 64.107336 64.172052 64.226052 64.269315 64.301843
64.323626 64.334665 64.334959 64.324508 64.303318 64.271388 64.228734 64.175355
64.111275 64.036496 63.951051 63.854947 63.748233 63.630919 63.503071 63.364710
63.215921 63.056738 62.887269 62.707564 62.517757 62.317918 62.108208 61.888720
61.659647 61.421104 61.173317 60.916425 60.650687 60.376268 60.093457 59.802443
59.503545 59.196974 58.883075 58.562078 58.234351 57.900138 57.559823 57.213664
56.862054 56.505256 56.143671 55.777562 55.407328 55.033229 54.655658 54.274865
53.891233 53.504997 53.116526 52.726035 52.333875 51.940239 51.545457 51.149699
50.753266 50.356307 49.959095 49.561752 49.164525 48.767507 48.370918 47.974826
47.579419 47.184744 46.790958 46.398085 46.006254 45.615467 45.225827 44.837313
44.450005 44.063864 43.678944 43.295190 42.912634 42.531208 42.150920 41.771694
41.393516 41.016302 40.640021 40.264579 39.889933 39.515982 39.142669 38.769893
38.397582 38.025636 37.653973 37.282494 36.911111
37.288889 37.699848 38.110903 38.522143 38.933669 39.345560 39.757919 40.170815
40.584349 40.998579 41.413603 41.829461 42.246248 42.663986 43.082762 43.502579
43.923513 44.345547 44.768742 45.193058 45.618543 46.045130 46.472849 46.901607
47.331412 47.762145 48.193792 48.626201 49.059336 49.493016 49.927175 50.361603
50.796207 51.230744 51.665095 52.098984 52.532264 52.964629 53.395904 53.825754
54.253978 54.680214 55.104237 55.525661 55.944239 56.359566 56.771379 57.179256
57.582920 57.981942 58.376036 58.764771 59.147856 59.524863 59.895507 60.259369
60.616171 60.965513 61.307130 61.640642 61.965807 62.282270 62.589812 62.888111
63.176972 63.456108 63.725352 63.984452 64.233270 64.471589 64.699298 64.916215
65.122257 65.317273 65.501201 65.673923 65.835396 65.985527 66.124290 66.251614
66.367487 66.471856 66.564716 66.646031 66.715802 66.774003 66.820639 66.855694
66.879172 66.891068 66.891382 66.880118 66.857274 66.822862 66.776878 66.719343
66.650254 66.569640 66.477502 66.373881 66.258784 66.132266 65.994343 65.845090
65.684534 65.512774 65.329851 65.135892 64.930958 64.715204 64.488716 64.251682
64.004212 63.746529 63.478772 63.201198 62.913976 62.617398 62.311659 61.997087
61.673903 61.342465 61.003019 60.655949 60.301519 59.940138 59.572082 59.197776
58.817507 58.431708 58.040669 57.644828 57.244472 56.840034 56.431793 56.020175
55.605443 55.188010 54.768120 54.346167 53.922374 53.497109 53.070572 52.643105
52.214882 51.786213 51.357244 50.928258 50.499370 50.070831 49.642730 49.215284
48.788555 48.362729 47.937840 47.514045 47.091353 46.669888 46.249640 45.830704
45.413047 44.996737 44.581725 44.168052 43.755651 43.344542 42.934643 42.525953
42.118379 41.711897 41.306410 40.901873 40.498182 40.095279 39.693054 39.291435
38.890312 38.489601 38.089191 37.688989 37.288889
37.666667 38.107172 38.547778 38.988594 39.429712 39.871243 40.313271 40.755906
41.199218 41.643317 42.088259 42.534147 42.981020 43.428975 43.878032 44.328276
44.779705 45.232394 45.686316 46.141530 46.597983 47.055717 47.514650 47.974804
48.436068 48.898440 49.361777 49.826053 50.291092 50.756839 51.223087 51.689751
52.156588 52.623485 53.090163 53.556478 54.022119 54.486910 54.950507 55.412704
55.873125 56.331539 56.787540 57.240871 57.691104 58.137958 58.580986 59.019890
59.454211 59.883637 60.307701 60.726086 61.138325 61.544102 61.942957 62.334578
62.718521 63.094490 63.462058 63.820950 64.170768 64.511257 64.842055 65.162934
65.473567 65.773760 66.063221 66.341788 66.609211 66.865358 67.110017 67.343089
67.564397 67.773867 67.971360 68.156826 68.330153 68.491312 68.640218 68.776857
68.901167 69.013144 69.112743 69.199966 69.274786 69.337206 69.387209 69.424800
69.449971 69.462725 69.463061 69.450979 69.426485 69.389578 69.340271 69.278561
69.204469 69.117992 69.019165 68.907986 68.784504 68.648726 68.500717 68.340494
68.168147 67.983708 67.787290 67.578948 67.358824 67.126997 66.883644 66.628869
66.362889 66.085837 65.797968 65.499447 65.190569 64.871530 64.542664 64.204198
63.856502 63.499831 63.134588 62.761051 62.379650 61.990684 61.594603 61.191718
60.782496 60.367254 59.946464 59.520445 59.089669 58.654447 58.215247 57.772364
57.326254 56.877197 56.425625 55.971798 55.516125 55.058839 54.600321 54.140776
53.680554 53.219829 52.758920 52.297968 51.837259 51.376902 50.917148 50.458078
49.999905 49.542682 49.086589 48.631650 48.178011 47.725672 47.274748 46.825213
46.377152 45.930519 45.485371 45.041643 44.599364 44.158455 43.718920 43.280666
42.843674 42.407842 41.973131 41.539428 41.106679 40.674764 40.243613 39.813105
39.383154 38.953639 38.524463 38.095508 37.666667
38.044444 38.514523 38.984717 39.455131 39.925885 40.397077 40.868826 41.341218
41.814374 42.288362 42.763300 43.239240 43.716293 44.194493 44.673940 45.154646
45.636699 46.120087 46.604884 47.091050 47.578642 48.067591 48.557932 49.049567
49.542506 50.036619 50.531890 51.028154 51.525367 52.023327 52.521960 53.021027
53.520422 54.019869 54.519227 55.018184 55.516565 56.014020 56.510344 57.005148
57.498196 57.989067 58.477496 58.963033 59.445385 59.924079 60.398799 60.869054
61.334511 61.794668 62.249182 62.697545 63.139411 63.574276 64.001798 64.421485
64.833005 65.235886 65.629816 66.014349 66.389196 66.753946 67.108339 67.452002
67.784709 68.106127 68.416066 68.714239 69.000488 69.274570 69.536363 69.785665
70.022387 70.246365 70.457539 70.655779 70.841048 71.013250 71.172365 71.318321