# vtk DataFile Version 3.0
Steady-state temperature (Jacobi)
ASCII
DATASET STRUCTURED_POINTS
DIMENSIONS 181 181 1
ORIGIN 0.0 0.0 0.0
SPACING 0.05 0.05 1.0
POINT_DATA 32761
SCALARS Temperature float 1
LOOKUP_TABLE default
32.000000 32.000000 32.000000 32.000000 32.000000 32.000000 32.000000 32.000000
32.000000 32.000000 32.000000 32.000000 32.000000 32.000000 32.000000 32.000000
32.000000 32.000000 32.000000 32.000000 32.000000 32.000000 32.000000 32.000000
32.000000 32.000000 32.000000 32.000000 32.000000 32.000000 32.000000 32.000000
32.000000 32.000000 32.000000 32.000000 32.000000 32.000000 32.000000 32.000000
32.000000 32.000000 32.000000 32.000000 32.000000 32.000000 32.000000 32.000000
32.000000 32.000000 32.000000 32.000000 32.000000 32.000000 32.000000 32.000000
32.000000 32.000000 32.000000 32.000000 32.000000 32.000000 32.000000 32.000000
32.000000 32.000000 32.000000 32.000000 32.000000 32.000000 32.000000 32.000000
32.000000 32.000000 32.000000 32.000000 32.000000 32.000000 32.000000 32.000000
32.000000 32.000000 32.000000 32.000000 32.000000 32.000000 32.000000 32.000000
32.000000 32.000000 32.000000 32.000000 32.000000 32.000000 32.000000 32.000000
32.000000 32.000000 32.000000 32.000000 32.000000 32.000000 32.000000 32.000000
32.000000 32.000000 32.000000 32.000000 32.000000 32.000000 32.000000 32.000000
32.000000 32.000000 32.000000 32.000000 32.000000 32.000000 32.000000 32.000000
32.000000 32.000000 32.000000 32.000000 32.000000 32.000000 32.000000 32.000000
32.000000 32.000000 32.000000 32.000000 32.000000 32.000000 32.000000 32.000000
32.000000 32.000000 32.000000 32.000000 32.000000 32.000000 32.000000 32.000000
32.000000 32.000000 32.000000 32.000000 32.000000 32.000000 32.000000 32.000000
32.000000 32.000000 32.000000 32.000000 32.000000 32.000000 32.000000 32.000000
32.000000 32.000000 32.000000 32.000000 32.000000 32.000000 32.000000 32.000000
32.000000 32.000000 32.000000 32.000000 32.000000 32.000000 32.000000 32.000000
32.000000 32.000000 32.000000 32.000000 32.000000
32.377778 32.409345 32.440915 32.472490 32.504075 32.535671 32.567281 32.598907
32.630552 32.662218 32.693906 32.725618 32.757355 32.789118 32.820906 32.852720
32.884559 32.916423 32.948308 32.980214 33.012137 33.044075 33.076022 33.107975
33.139927 33.171873 33.203806 33.235718 33.267601 33.299446 33.331242 33.362979
33.394645 33.426229 33.457716 33.489094 33.520346 33.551459 33.582415 33.613199
33.643792 33.674176 33.704332 33.734243 33.763886 33.793244 33.822293 33.851016
33.879390 33.907394 33.935006 33.962207 33.988974 34.015286 34.041122 34.066463
34.091287 34.115575 34.139308 34.162467 34.185033 34.206991 34.228321 34.249010
34.269040 34.288399 34.307072 34.325047 34.342311 34.358854 34.374665 34.389735
34.404055 34.417617 34.430414 34.442441 34.453690 34.464156 34.473836 34.482726
34.490820 34.498118 34.504616 34.510312 34.515205 34.519292 34.522573 34.525047
34.526713 34.527570 34.527620 34.526862 34.525296 34.522922 34.519743 34.515758
34.510969 34.505378 34.498987 34.491799 34.483815 34.475040 34.465477 34.455129
34.444003 34.432103 34.419436 34.406007 34.391825 34.376897 34.361233 34.344842
34.327734 34.309920 34.291415 34.272228 34.252376 34.231871 34.210731 34.188970
34.166606 34.143657 34.120140 34.096075 34.071481 34.046378 34.020787 33.994727
33.968221 33.941288 33.913951 33.886231 33.858150 33.829727 33.800986 33.771946
33.742628 33.713053 33.683240 33.653208 33.622977 33.592564 33.561987 33.531263
33.500409 33.469438 33.438368 33.407210 33.375979 33.344686 33.313345 33.281964
33.250555 33.219125 33.187685 33.156240 33.124799 33.093367 33.061950 33.030551
32.999176 32.967827 32.936508 32.905219 32.873964 32.842741 32.811554 32.780399
32.749279 32.718191 32.687135 32.656107 32.625108 32.594133 32.563182 32.532250
32.501335 32.470433 32.439542 32.408658 32.377778
32.755556 32.818690 32.881831 32.944984 33.008154 33.071347 33.134568 33.197822
33.261114 33.324448 33.387827 33.451253 33.514730 33.578257 33.641838 33.705470
33.769153 33.832884 33.896662 33.960479 34.024333 34.088214 34.152117 34.216029
34.279944 34.343845 34.407721 34.471555 34.535333 34.599034 34.662640 34.726127
34.789475 34.852656 34.915648 34.978418 35.040941 35.103184 35.165115 35.226700
35.287906 35.348693 35.409027 35.468867 35.528176 35.586911 35.645034 35.702500
35.759270 35.815299 35.870547 35.924968 35.978524 36.031168 36.082863 36.133564
36.183233 36.231828 36.279313 36.325648 36.370799 36.414729 36.457407 36.498798
36.538875 36.577605 36.614964 36.650925 36.685465 36.718560 36.750192 36.780340
36.808988 36.836119 36.861721 36.885778 36.908281 36.929219 36.948583 36.966364
36.982557 36.997155 37.010153 37.021547 37.031333 37.039508 37.046071 37.051019
37.054352 37.056068 37.056167 37.054650 37.051517 37.046770 37.040409 37.032438
37.022859 37.011676 36.998892 36.984512 36.968542 36.950988 36.931857 36.911159
36.888901 36.865096 36.839755 36.812891 36.784518 36.754655 36.723316 36.690524
36.656296 36.620659 36.583633 36.545248 36.505528 36.464505 36.422207 36.378669
36.333924 36.288007 36.240955 36.192806 36.143597 36.093372 36.042167 35.990027
35.936992 35.883106 35.828410 35.772949 35.716763 35.659898 35.602393 35.544293
35.485635 35.426465 35.366817 35.306735 35.246252 35.185408 35.124236 35.062771
35.001044 34.939088 34.876930 34.814601 34.752123 34.689526 34.626829 34.564056
34.501225 34.438356 34.375464 34.312567 34.249675 34.186803 34.123960 34.061157
33.998400 33.935697 33.873052 33.810471 33.747954 33.685507 33.623127 33.560816
33.498572 33.436395 33.374279 33.312223 33.250222 33.188272 33.126368 33.064503
33.002672 32.940869 32.879086 32.817317 32.755556
33.133333 33.228038 33.322751 33.417483 33.512240 33.607033 33.701868 33.796754
33.891695 33.986701 34.081774 34.176921 34.272142 34.367443 34.462822 34.558281
34.653815 34.749426 34.845103 34.940846 35.036641 35.132482 35.228353 35.324244
35.420136 35.516013 35.611851 35.707632 35.803325 35.898908 35.994347 36.089614
36.184670 36.279482 36.374006 36.468205 36.562030 36.655439 36.748380 36.840807
36.932661 37.023894 37.114443 37.204258 37.293271 37.381430 37.468665 37.554921
37.640128 37.724228 37.807152 37.888841 37.969225 38.048247 38.125839 38.201943
38.276494 38.349437 38.420710 38.490260 38.558028 38.623967 38.688022 38.750148
38.810297 38.868427 38.924496 38.978468 39.030303 39.079973 39.127442 39.172687
39.215677 39.256392 39.294809 39.330910 39.364676 39.396094 39.425148 39.451830
39.476126 39.498029 39.517531 39.534626 39.549308 39.561574 39.571420 39.578844
39.583844 39.586418 39.586567 39.584290 39.579590 39.572467 39.562924 39.550965
39.536593 39.519813 39.500632 39.479056 39.455093 39.428753 39.400048 39.368989
39.335591 39.299868 39.261841 39.221526 39.178949 39.134131 39.087101 39.037886
38.986519 38.933031 38.877463 38.819849 38.760235 38.698660 38.635176 38.569826
38.502666 38.433744 38.363120 38.290846 38.216986 38.141594 38.064737 37.986472
37.906868 37.825983 37.743886 37.660638 37.576307 37.490953 37.404644 37.317437
37.229402 37.140591 37.051072 36.960897 36.870127 36.778811 36.687009 36.594765
36.502134 36.409157 36.315883 36.222350 36.128601 36.034668 35.940593 35.846401
35.752128 35.657796 35.563435 35.469063 35.374705 35.280375 35.186093 35.091869
34.997719 34.903649 34.809670 34.715784 34.622001 34.528318 34.434741 34.341266
34.247895 34.154621 34.061443 33.968354 33.875350 33.782421 33.689562 33.596762
33.504014 33.411307 33.318632 33.225977 33.133333
33.511111 33.637388 33.763677 33.889990 34.016339 34.142734 34.269187 34.395708
34.522306 34.648988 34.775763 34.902636 35.029612 35.156693 35.283883 35.411178
35.538580 35.666081 35.793679 35.921360 36.049119 36.176937 36.304804 36.432694
36.560593 36.688471 36.816305 36.944060 37.071708 37.199206 37.326522 37.453605
37.580415 37.706898 37.833006 37.958678 38.083860 38.208486 38.332496 38.455815
38.578382 38.700115 38.820946 38.940791 39.059578 39.177218 39.293637 39.408742
39.522457 39.634689 39.745359 39.854375 39.961658 40.067116 40.170672 40.272236
40.371734 40.469079 40.564199 40.657015 40.747457 40.835451 40.920934 41.003837
41.084104 41.161672 41.236492 41.308506 41.377673 41.443944 41.507282 41.567645
41.625003 41.679320 41.730573 41.778732 41.823778 41.865687 41.904446 41.940035
41.972443 42.001658 42.027671 42.050471 42.070055 42.086414 42.099546 42.109447
42.116115 42.119548 42.119746 42.116710 42.110440 42.100940 42.088211 42.072260
42.053090 42.030710 42.005124 41.976345 41.944380 41.909246 41.870953 41.829521
41.784965 41.737310 41.686576 41.632793 41.575985 41.516190 41.453438 41.387772
41.319230 41.247860 41.173708 41.096829 41.017273 40.935106 40.850382 40.763173
40.673542 40.581564 40.487307 40.390855 40.292278 40.191663 40.089087 39.984638
39.878395 39.770451 39.660884 39.549788 39.437241 39.323338 39.208154 39.091784
38.974300 38.855794 38.736337 38.616013 38.494892 38.373054 38.250563 38.127492
38.003901 37.879859 37.755417 37.630639 37.505570 37.380267 37.254770 37.129127
37.003372 36.877549 36.751684 36.625814 36.499960 36.374152 36.248405 36.122743
35.997178 35.871726 35.746393 35.621193 35.496126 35.371200 35.246412 35.121767
34.997257 34.872883 34.748635 34.624510 34.500496 34.376586 34.252767 34.129031
34.005363 33.881750 33.758180 33.634639 33.511111
33.888889 34.046742 34.204609 34.362508 34.520451 34.678454 34.836530 34.994692
35.152951 35.311320 35.469804 35.628414 35.787154 35.946031 36.105043 36.264194
36.423477 36.582892 36.742426 36.902074 37.061818 37.221646 37.381532 37.541460
37.701396 37.861317 38.021182 38.180960 38.340603 38.500071 38.659308 38.818267
38.976884 39.135104 39.292853 39.450069 39.606671 39.762590 39.917735 40.072030
40.225379 40.377699 40.528886 40.678853 40.827490 40.974706 41.120386 41.264436
41.406739 41.547197 41.685694 41.822131 41.956392 42.088378 42.217975 42.345088
42.469606 42.591437 42.710476 42.826635 42.939815 43.049937 43.156907 43.260653
43.361091 43.458155 43.551770 43.641880 43.728417 43.811334 43.890573 43.966092
44.037844 44.105795 44.169905 44.230147 44.286489 44.338909 44.387384 44.431896
44.472426 44.508963 44.541493 44.570007 44.594495 44.614953 44.631374 44.643754
44.652091 44.656383 44.656631 44.652833 44.644993 44.633112 44.617195 44.597247
44.573274 44.545284 44.513287 44.477293 44.437318 44.393373 44.345480 44.293655
44.237925 44.178312 44.114849 44.047565 43.976501 43.901691 43.823184 43.741023
43.655265 43.565962 43.473179 43.376975 43.277427 43.174600 43.068579 42.959438
42.847271 42.732158 42.614200 42.493484 42.370117 42.244190 42.115817 41.985093
41.852132 41.717035 41.579917 41.440877 41.300035 41.157487 41.013351 40.867722
40.720714 40.572421 40.422951 40.272393 40.120851 39.968408 39.815160 39.661185
39.506573 39.351393 39.195728 39.039638 38.883199 38.726464 38.569500 38.412351
38.255076 38.097712 37.940310 37.782898 37.625518 37.468193 37.310957 37.153825
36.996823 36.839962 36.683260 36.526721 36.370357 36.214169 36.058161 35.902329
35.746675 35.591187 35.435864 35.280693 35.125666 34.970768 34.815988 34.661310
34.506720 34.352199 34.197733 34.043302 33.888889
34.266667 34.456099 34.645550 34.835037 35.024581 35.214197 35.403902 35.593712
35.783642 35.973703 36.163909 36.354267 36.544787 36.735471 36.926326 37.117348
37.308538 37.499886 37.691388 37.883027 38.074792 38.266658 38.458608 38.650607
38.842631 39.034636 39.226589 39.418437 39.610139 39.801630 39.992860 40.183757
40.374259 40.564283 40.753759 40.942594 41.130709 41.318001 41.504382 41.689739
41.873977 42.056975 42.238629 42.418813 42.597416 42.774304 42.949365 43.122459
43.293469 43.462256 43.628698 43.792657 43.954012 44.112624 44.268377 44.421133
44.570780 44.717187 44.860246 44.999833 45.135847 45.268172 45.396717 45.521375
45.642061 45.758682 45.871163 45.979420 46.083388 46.182995 46.278186 46.368898
46.455087 46.536700 46.613702 46.686050 46.753716 46.816665 46.874877 46.928324
46.976993 47.020861 47.059919 47.094153 47.123554 47.148114 47.167828 47.182690
47.192698 47.197850 47.198146 47.193587 47.184173 47.169909 47.150798 47.126848
47.098065 47.064459 47.026039 46.982820 46.934817 46.882048 46.824532 46.762297
46.695364 46.623770 46.547544 46.466730 46.381365 46.291502 46.197189 46.098488
45.995455 45.888165 45.776682 45.661093 45.541472 45.417917 45.290511 45.159362
45.024563 44.886231 44.744468 44.599399 44.451132 44.299799 44.145515 43.988417
43.828622 43.666270 43.501482 43.334399 43.165141 42.993849 42.820641 42.645656
42.469009 42.290833 42.111239 41.930356 41.748286 41.565152 41.381048 41.196089
41.010361 40.823970 40.636994 40.449527 40.261637 40.073411 39.884907 39.696200
39.507339 39.318389 39.129391 38.940397 38.751441 38.562567 38.373797 38.185167
37.996692 37.808399 37.620295 37.432400 37.244714 37.057249 36.870000 36.682971
36.496154 36.309547 36.123135 35.936913 35.750863 35.564973 35.379225 35.193603
35.008086 34.822655 34.637289 34.451967 34.266667
34.644444 34.865461 35.086499 35.307582 35.528729 35.749965 35.971306 36.192773
36.414381 36.636148 36.858085 37.080208 37.302520 37.525034 37.747748 37.970668
38.193785 38.417100 38.640595 38.864265 39.088084 39.312036 39.536087 39.760213
39.984369 40.208522 40.432615 40.656606 40.880426 41.104022 41.327314 41.550238
41.772702 41.994630 42.215918 42.436481 42.656201 42.874983 43.092699 43.309243
43.524476 43.738283 43.950517 44.161054 44.369740 44.576443 44.781004 44.983285
45.183125 45.380383 45.574893 45.766515 45.955085 46.140463 46.322488 46.501022
46.675910 46.847020 47.014204 47.177338 47.336282 47.490922 47.641129 47.786798
47.927812 48.064079 48.195493 48.321975 48.443432 48.559795 48.670985 48.776946
48.877611 48.972933 49.062858 49.147348 49.226361 49.299868 49.367835 49.430240
49.487058 49.538275 49.583870 49.623834 49.658153 49.686823 49.709833 49.727180
49.738861 49.744874 49.745218 49.739894 49.728905 49.712254 49.689945 49.661986
49.628385 49.589151 49.544299 49.493839 49.437794 49.376180 49.309023 49.236347
49.158188 49.074575 48.985554 48.891163 48.791458 48.686487 48.576318 48.461010
48.340644 48.215288 48.085038 47.949974 47.810203 47.665818 47.516939 47.363671
47.206144 47.044473 46.878800 46.709250 46.535972 46.359098 46.178787 45.995175
45.808424 45.618676 45.426096 45.230825 45.033030 44.832850 44.630451 44.425969
44.219564 44.011370 43.801540 43.590200 43.377496 43.163545 42.948486 42.732425
42.515491 42.297779 42.079408 41.860462 41.641048 41.421238 41.201128 40.980780
40.760274 40.539664 40.319019 40.098379 39.877804 39.657323 39.436983 39.216806
38.996828 38.777062 38.557533 38.338247 38.119220 37.900450 37.681946 37.463698
37.245708 37.027963 36.810456 36.593169 36.376091 36.159201 35.942481 35.725908
35.509462 35.293117 35.076850 34.860634 34.644444
35.022222 35.274827 35.527457 35.780139 36.032899 36.285759 36.538745 36.791875
37.045175 37.298657 37.552343 37.806242 38.060369 38.314728 38.569330 38.824168
39.079248 39.334555 39.590087 39.845820 40.101743 40.357821 40.614033 40.870333
41.126691 41.383048 41.639360 41.895559 42.151588 42.407363 42.662817 42.917853
43.172390 43.426315 43.679538 43.931931 44.183389 44.433774 44.682967 44.930817
45.177196 45.421941 45.664912 45.905937 46.144868 46.381525 46.615753 46.847365
47.076202 47.302075 47.524821 47.744250 47.960201 48.172484 48.380941 48.585387
48.785669 48.981611 49.173065 49.359865 49.541874 49.718937 49.890928 50.057706
50.219157 50.375155 50.525600 50.670380 50.809409 50.942590 51.069852 51.191112
51.306311 51.415382 51.518277 51.614941 51.705339 51.789426 51.867176 51.938556
52.003545 52.062121 52.114268 52.159970 52.199218 52.232001 52.258313 52.278149
52.291505 52.298379 52.298771 52.292682 52.280114 52.261071 52.235558 52.203584
52.165155 52.120284 52.068983 52.011271 51.947163 51.876684 51.799858 51.716718
51.627294 51.531630 51.429766 51.321757 51.207652 51.087522 50.961427 50.829450
50.691665 50.548171 50.399054 50.244430 50.084397 49.919087 49.748611 49.573115
49.392724 49.207596 49.017868 48.823709 48.625266 48.422717 48.216217 48.005951
47.792080 47.574792 47.354251 47.130649 46.904148 46.674938 46.443180 46.209061
45.972737 45.734390 45.494166 45.252240 45.008752 44.763865 44.517708 44.270433
44.022159 43.773025 43.523136 43.272619 43.021567 42.770092 42.518273 42.266210
42.013969 41.761636 41.509263 41.256923 41.004657 40.752524 40.500553 40.248792
39.997259 39.745989 39.494991 39.244290 38.993886 38.743793 38.494004 38.244524
37.995339 37.746446 37.497826 37.249468 37.001350 36.753454 36.505754 36.258228
36.010847 35.763586 35.516414 35.269303 35.022222
35.400000 35.684198 35.968425 36.252713 36.537088 36.821582 37.106217 37.391024
37.676022 37.961237 38.246682 38.532379 38.818337 39.104570 39.391078 39.677871
39.964939 40.252283 40.539884 40.827734 41.115800 41.404067 41.692489 41.981037
42.269655 42.558300 42.846901 43.135403 43.423720 43.711783 43.999490 44.286759
44.573470 44.859527 45.144796 45.429165 45.712485 45.994629 46.275433 46.554759
46.832427 47.108285 47.382145 47.653842 47.923177 48.189977 48.454035 48.715170
48.973171 49.227853 49.479000 49.726428 49.969923 50.209299 50.444347 50.674887
50.900715 51.121659 51.337526 51.548153 51.753357 51.952991 52.146885 52.334905
52.516899 52.692746 52.862312 53.025493 53.182171 53.332258 53.475654 53.612286
53.742071 53.864950 53.980855 54.089740 54.191552 54.286257 54.373812 54.454193
54.527369 54.593323 54.652032 54.703486 54.747669 54.784574 54.814192 54.836520
54.851552 54.859288 54.859728 54.852871 54.838722 54.817283 54.788561 54.752562
54.709298 54.658776 54.601016 54.536030 54.463842 54.384472 54.297953 54.204311
54.103591 53.995829 53.881081 53.759394 53.630838 53.495475 53.353388 53.204654
53.049373 52.887636 52.719563 52.545259 52.364860 52.178489 51.986299 51.788426
51.585041 51.376294 51.162369 50.943428 50.719668 50.491262 50.258415 50.021307
49.780151 49.535132 49.286465 49.034337 48.778964 48.520531 48.259252 47.995307
47.728905 47.460219 47.189451 46.916763 46.642347 46.366356 46.088967 45.810322
45.530585 45.249881 44.968363 44.686141 44.403350 44.120087 43.836471 43.552584
43.268530 42.984375 42.700208 42.416081 42.132068 41.848208 41.564560 41.281150
40.998023 40.715195 40.432698 40.150537 39.868733 39.587280 39.306189 39.025447
38.745054 38.464991 38.185250 37.905805 37.626641 37.347728 37.069045 36.790559
36.512242 36.234060 35.955983 35.677974 35.400000
35.777778 36.093572 36.409402 36.725299 37.041298 37.357429 37.673727 37.990216
38.306928 38.623884 38.941110 39.258619 39.576434 39.894559 40.213010 40.531781
40.850882 41.170294 41.490017 41.810023 42.130299 42.450803 42.771511 43.092367
43.413333 43.734337 44.055328 44.376217 44.696937 45.017383 45.337472 45.657080
45.976110 46.294419 46.611892 46.928370 47.243722 47.557772 47.870370 48.181327
48.490479 48.797619 49.102571 49.405117 49.705067 50.002194 50.296298 50.587144
50.874527 51.158207 51.437975 51.713589 51.984843 52.251496 52.513345 52.770155
53.021729 53.267844 53.508311 53.742920 53.971495 54.193840 54.409797 54.619185
54.821863 55.017670 55.206481 55.388157 55.562591 55.729662 55.889282 56.041350
56.185794 56.322530 56.451504 56.572648 56.685921 56.791270 56.888665 56.978067
57.059455 57.132800 57.198089 57.255302 57.304430 57.345462 57.378393 57.403215
57.419926 57.428525 57.429011 57.421386 57.405651 57.381813 57.349874 57.309845
57.261732 57.205552 57.141313 57.069039 56.988745 56.900463 56.804215 56.700044
56.587981 56.468082 56.340390 56.204975 56.061894 55.911232 55.753064 55.587493
55.414610 55.234536 55.047380 54.853286 54.652378 54.444820 54.230755 54.010365
53.783809 53.551288 53.312976 53.069087 52.819809 52.565369 52.305965 52.041832
51.773175 51.500237 51.223224 50.942382 50.657918 50.370075 50.079057 49.785103
49.488411 49.189212 48.887694 48.584077 48.278538 47.971286 47.662482 47.352321
47.040949 46.728544 46.415238 46.101191 45.786517 45.471359 45.155816 44.840011
44.524027 44.207970 43.891906 43.575924 43.260074 42.944430 42.629026 42.313921
41.999135 41.684712 41.370661 41.057010 40.743760 40.430926 40.118496 39.806477
39.494848 39.183605 38.872721 38.562183 38.251958 37.942025 37.632349 37.322900
37.013641 36.704539 36.395552 36.086645 35.777778
36.155556 36.502951 36.850386 37.197898 37.545524 37.893303 38.241266 38.589452
38.937886 39.286602 39.635619 39.984966 40.334654 40.684706 41.035121 41.385915
41.737077 42.088612 42.440496 42.792723 43.145255 43.498075 43.851128 44.204382
44.557767 44.911235 45.264700 45.618095 45.971316 46.324281 46.676863 47.028964
47.380438 47.731166 48.080985 48.429756 48.777295 49.123447 49.468010 49.810809
50.151626 50.490271 50.826509 51.160136 51.490904 51.818596 52.142955 52.463756
52.780734 53.093657 53.402258 53.706303 54.005526 54.299695 54.588547 54.871857
55.149371 55.420874 55.686123 55.944917 56.197029 56.442273 56.680441 56.911366
57.134859 57.350774 57.558945 57.759244 57.951529 58.135692 58.311614 58.479207
58.638371 58.789037 58.931126 59.064586 59.189353 59.305389 59.412648 59.511102
59.600718 59.681477 59.753355 59.816342 59.870422 59.915590 59.951836 59.979156
59.997548 60.007010 60.007542 59.999146 59.981824 59.955580 59.920420 59.876350
59.823383 59.761526 59.690799 59.611213 59.522797 59.425570 59.319569 59.204823
59.081383 58.949288 58.808605 58.659388 58.501719 58.335670 58.161342 57.978825
57.788242 57.589702 57.383351 57.169316 56.947768 56.718853 56.482764 56.239668
55.989777 55.733276 55.470396 55.201340 54.926351 54.645646 54.359482 54.068084
53.771719 53.470616 53.165046 52.855243 52.541476 52.223977 51.903013 51.578810
51.251627 50.921680 50.589220 50.254451 49.917608 49.578883 49.238496 48.896620
48.553459 48.209169 47.863935 47.517894 47.171212 46.824007 46.476425 46.128566
45.780556 45.432476 45.084432 44.736488 44.388733 44.041212 43.693996 43.347116
43.000625 42.654540 42.308899 41.963705 41.618982 41.274722 40.930935 40.587604
40.244726 39.902276 39.560242 39.218591 38.877301 38.536335 38.195664 37.855246
37.515045 37.175017 36.835123 36.495317 36.155556
36.533333 36.912333 37.291376 37.670505 38.049765 38.429194 38.808836 39.188722
39.568895 39.949379 40.330212 40.711410 41.093004 41.475001 41.857423 42.240266
42.623542 43.007234 43.391342 43.775836 44.160703 44.545895 44.931384 45.317107
45.703018 46.089035 46.475096 46.861097 47.246959 47.632557 48.017791 48.402515
48.786608 49.169904 49.552260 49.933487 50.313424 50.691859 51.068611 51.443448
51.816171 52.186529 52.554305 52.919232 53.281079 53.639567 53.994450 54.345440
54.692285 55.034689 55.372395 55.705106 56.032566 56.354481 56.670597 56.980629
57.284333 57.581433 57.871699 58.154871 58.430736 58.699055 58.959631 59.212248
59.456731 59.692889 59.920571 60.139608 60.349872 60.551223 60.743553 60.926746
61.100717 61.265371 61.420644 61.566461 61.702775 61.829529 61.946690 62.054216
62.152086 62.240271 62.318757 62.387525 62.446569 62.495876 62.535442 62.565263
62.585337 62.595663 62.596240 62.587071 62.568158 62.539506 62.501117 62.453003
62.395167 62.327626 62.250389 62.163479 62.066911 61.960718 61.844924 61.719573
61.584701 61.440368 61.286624 61.123546 60.951201 60.769688 60.579092 60.379534
60.171122 59.954001 59.728300 59.494191 59.251825 59.001399 58.743088 58.477111
58.203665 57.922993 57.635309 57.340877 57.039926 56.732736 56.419550 56.100658
55.776313 55.446811 55.112411 54.773410 54.430067 54.082679 53.731499 53.376818
53.018880 52.657968 52.294313 51.928183 51.559796 51.189404 50.817206 50.443436
50.068276 49.691937 49.314582 48.936401 48.557534 48.178153 47.798374 47.418347
47.038170 46.657968 46.277821 45.897833 45.518064 45.138598 44.759477 44.380767
44.002493 43.624703 43.247407 42.870636 42.494387 42.118677 41.743491 41.368830
40.994672 40.621005 40.247797 39.875028 39.502657 39.130656 38.758980 38.387593
38.016445 37.645494 37.274691 36.903987 36.533333
36.911111 37.321716 37.732369 38.143120 38.554015 38.965102 39.376423 39.788025
40.199942 40.612216 41.024873 41.437952 41.851467 42.265448 42.679899 43.094840
43.510262 43.926173 44.342550 44.759386 45.176642 45.594296 46.012291 46.430588
46.849108 47.267797 47.686554 48.105304 48.523923 48.942315 49.360334 49.777862
50.194728 50.610790 51.025856 51.439759 51.852282 52.263238 52.672386 53.079516
53.484367 53.886708 54.286258 54.682770 55.075945 55.465520 55.851184 56.232663
56.609636 56.981821 57.348894 57.710571 58.066527 58.416480 58.760111 59.097147
59.427278 59.750242 60.065747 60.373547 60.673369 60.964989 61.248155 61.522667
61.788301 62.044880 62.292209 62.530135 62.758493 62.977157 63.185988 63.384884
63.573732 63.752456 63.920966 64.079203 64.227101 64.364619 64.491706 64.608338
64.714478 64.810111 64.895213 64.969776 65.033787 65.087241 65.130130 65.162455
65.184211 65.195401 65.196023 65.186079 65.165573 65.134507 65.092887 65.040717
64.978009 64.904767 64.821012 64.726753 64.622017 64.506823 64.381209 64.245205
64.098864 63.942228 63.775369 63.598347 63.411255 63.214173 63.007217 62.790490
62.564134 62.328278 62.083092 61.828728 61.565385 61.293243 61.012527 60.723441
60.426237 60.121143 59.808434 59.488357 59.161207 58.827248 58.486790 58.140110
57.787528 57.429327 57.065834 56.697334 56.324155 55.946577 55.564926 55.179473
54.790534 54.398371 54.003285 53.605523 53.205371 52.803055 52.398842 51.992939
51.585591 51.176983 50.767336 50.356814 49.945612 49.533871 49.121763 48.709406
48.296947 47.884481 47.472132 47.059975 46.648110 46.236592 45.825500 45.414868
45.004758 44.595187 44.186195 43.777784 43.369980 42.962770 42.556164 42.150136
41.744683 41.339771 40.935382 40.531475 40.128021 39.724973 39.322294 38.919930
38.517839 38.115963 37.714254 37.312654 36.911111
37.288889 37.731098 38.173362 38.615734 39.058268 39.501014 39.944026 40.387345
40.831022 41.275091 41.719599 42.164569 42.610040 43.056024 43.502550 43.949618
44.397244 44.845413 45.294129 45.743359 46.193092 46.643274 47.093878 47.544830
47.996083 48.447542 48.899137 49.350750 49.802290 50.253611 50.704600 51.155087
51.604931 52.053936 52.501938 52.948713 53.394072 53.837765 54.279577 54.719235
55.156500 55.591077 56.022704 56.451066 56.875884 57.296824 57.713594 58.125846
58.533277 58.935532 59.332303 59.723232 60.108009 60.486281 60.857743 61.222051
61.578911 61.927993 62.269020 62.601682 62.925721 63.240854 63.546845 63.843439
64.130430 64.407591 64.674745 64.931697 65.178298 65.414385 65.639838 65.854523
66.058347 66.251204 66.433025 66.603728 66.763266 66.911577 67.048631 67.174386
67.288823 67.391913 67.483648 67.564011 67.632998 67.690601 67.736818 67.771646
67.795086 67.807138 67.807804 67.797085 67.774982 67.741501 67.696643 67.640416
67.572822 67.493875 67.403582 67.301963 67.189031 67.064816 66.929342 66.782653
66.624784 66.455799 66.275749 66.084718 65.882779 65.670041 65.446601 65.212594
64.968144 64.713418 64.448566 64.173786 63.889258 63.595212 63.291855 62.979448
62.658226 62.328476 61.990457 61.644482 61.290830 60.929833 60.561787 60.187038
59.805893 59.418707 59.025791 58.627504 58.224157 57.816106 57.403656 56.987156
56.566899 56.143221 55.716400 55.286756 54.854549 54.420077 53.983578 53.545328
53.105542 52.664471 52.222304 51.779266 51.335521 50.891267 50.446644 50.001823
49.556917 49.112073 48.667379 48.222956 47.778872 47.335223 46.892053 46.449438
46.007403 45.566001 45.125240 44.685154 44.245735 43.807000 43.368927 42.931516
42.494735 42.058568 41.622974 41.187926 40.753374 40.319280 39.885588 39.452253
39.019215 38.586420 38.153807 37.721317 37.288889
37.666667 38.140479 38.614351 39.088344 39.562515 40.036925 40.511625 40.986673
41.462113 41.937999 42.414364 42.891255 43.368696 43.846724 44.325348 44.804595
45.284460 45.764955 46.246057 46.727764 47.210033 47.692845 48.176135 48.659863
49.143943 49.628313 50.112860 50.597499 51.082093 51.566530 52.050644 52.534299
53.017300 53.499481 53.980620 54.460525 54.938941 55.415651 55.890372 56.362859
56.832804 57.299936 57.763923 58.224472 58.681230 59.133885 59.582067 60.025451
60.463654 60.896340 61.323123 61.743663 62.157572 62.564514 62.964109 63.356028
63.739904 64.115423 64.482240 64.840059 65.188560 65.527473 65.856507 66.175423
66.483959 66.781910 67.069048 67.345200 67.610174 67.863829 68.106007 68.336597
68.555473 68.762553 68.957740 69.140976 69.312190 69.471343 69.618385 69.753295
69.876040 69.986608 70.084980 70.171154 70.245118 70.306874 70.356417 70.393750
70.418873 70.431788 70.432496 70.420999 70.397301 70.361400 70.313304 70.253011
70.180531 70.095865 69.999028 69.890027 69.768885 69.635617 69.490258 69.332835
69.163401 68.981998 68.788700 68.583569 68.366705 68.138194 67.898166 67.646733
67.384058 67.110284 66.825606 66.530202 66.224300 65.908109 65.581895 65.245897
64.900411 64.545707 64.182112 63.809918 63.429477 63.041104 62.645168 62.241998
61.831979 61.415448 60.992794 60.564359 60.130531 59.691648 59.248094 58.800195
58.348324 57.892792 57.433956 56.972108 56.507583 56.040652 55.571624 55.100746
54.628301 54.154507 53.679620 53.203831 52.727367 52.250390 51.773098 51.295625
50.818141 50.340753 49.863603 49.386773 48.910377 48.434474 47.959153 47.484450
47.010432 46.537115 46.064541 45.592711 45.121647 44.651333 44.181773 43.712938
43.244817 42.777366 42.310563 41.844355 41.378705 40.913555 40.448856 39.984546
39.520569 39.056856 38.593347 38.129973 37.666667
38.044444 38.549854 39.055330 39.560939 40.066749 40.572818 41.079213 41.585989
42.093206 42.600910 43.109156 43.617978 44.127423 44.637512 45.148282 45.659737
46.171901 46.684762 47.198329 47.712568 48.227471 48.742983 49.259075 49.775669
50.292713 50.810103 51.327763 51.845560 52.363393 52.881100 53.398550 53.915552
54.431945 54.947506 55.462045 55.975307 56.487070 56.997049 57.504993 58.010584
58.513545 59.013529 59.510232 60.003283 60.492354 60.977053 61.457033 61.931887
62.401253 62.864714 63.321902 63.772395 64.215824 64.651772 65.079874 65.499726
65.910975 66.313235 66.706175 67.089431 67.462699 67.825645 68.177995 68.519451
68.849773 69.168700 69.476028 69.771534 70.055052 70.326396 70.585436 70.832023
71.066058 71.287427 71.496060 71.691873 71.874819 72.044839 72.201908 72.345986