# vtk DataFile Version 3.0
Steady-state temperature (Jacobi)
ASCII
DATASET STRUCTURED_POINTS
DIMENSIONS 181 181 1
ORIGIN 0.0 0.0 0.0
SPACING 0.05 0.05 1.0
POINT_DATA 32761
SCALARS Temperature float 1
LOOKUP_TABLE default
32.000000 32.000000 32.000000 32.000000 32.000000 32.000000 32.000000 32.000000
32.000000 32.000000 32.000000 32.000000 32.000000 32.000000 32.000000 32.000000
32.000000 32.000000 32.000000 32.000000 32.000000 32.000000 32.000000 32.000000
32.000000 32.000000 32.000000 32.000000 32.000000 32.000000 32.000000 32.000000
32.000000 32.000000 32.000000 32.000000 32.000000 32.000000 32.000000 32.000000
32.000000 32.000000 32.000000 32.000000 32.000000 32.000000 32.000000 32.000000
32.000000 32.000000 32.000000 32.000000 32.000000 32.000000 32.000000 32.000000
32.000000 32.000000 32.000000 32.000000 32.000000 32.000000 32.000000 32.000000
32.000000 32.000000 32.000000 32.000000 32.000000 32.000000 32.000000 32.000000
32.000000 32.000000 32.000000 32.000000 32.000000 32.000000 32.000000 32.000000
32.000000 32.000000 32.000000 32.000000 32.000000 32.000000 32.000000 32.000000
32.000000 32.000000 32.000000 32.000000 32.000000 32.000000 32.000000 32.000000
32.000000 32.000000 32.000000 32.000000 32.000000 32.000000 32.000000 32.000000
32.000000 32.000000 32.000000 32.000000 32.000000 32.000000 32.000000 32.000000
32.000000 32.000000 32.000000 32.000000 32.000000 32.000000 32.000000 32.000000
32.000000 32.000000 32.000000 32.000000 32.000000 32.000000 32.000000 32.000000
32.000000 32.000000 32.000000 32.000000 32.000000 32.000000 32.000000 32.000000
32.000000 32.000000 32.000000 32.000000 32.000000 32.000000 32.000000 32.000000
32.000000 32.000000 32.000000 32.000000 32.000000 32.000000 32.000000 32.000000
32.000000 32.000000 32.000000 32.000000 32.000000 32.000000 32.000000 32.000000
32.000000 32.000000 32.000000 32.000000 32.000000 32.000000 32.000000 32.000000
32.000000 32.000000 32.000000 32.000000 32.000000 32.000000 32.000000 32.000000
32.000000 32.000000 32.000000 32.000000 32.000000
32.377778 32.405045 32.432321 32.459613 32.486929 32.514278 32.541665 32.569102
32.596591 32.624144 32.651763 32.679457 32.707229 32.735088 32.763034 32.791076
32.819211 32.847449 32.875784 32.904224 32.932764 32.961410 32.990152 33.018997
33.047933 33.076964 33.106078 33.135275 33.164541 33.193877 33.223264 33.252700
33.282167 33.311660 33.341156 33.370652 33.400122 33.429559 33.458937 33.488246
33.517459 33.546565 33.575533 33.604352 33.632990 33.661434 33.689651 33.717628
33.745330 33.772743 33.799834 33.826586 33.852966 33.878959 33.904532 33.929669
33.954337 33.978522 34.002193 34.025335 34.047920 34.069933 34.091347 34.112151
34.132317 34.151836 34.170684 34.188852 34.206318 34.223075 34.239104 34.254397
34.268940 34.282725 34.295740 34.307981 34.319434 34.330097 34.339960 34.349021
34.357272 34.364711 34.371333 34.377135 34.382113 34.386267 34.389593 34.392091
34.393760 34.394598 34.394606 34.393784 34.392132 34.389651 34.386343 34.382207
34.377249 34.371467 34.364868 34.357452 34.349226 34.340192 34.330358 34.319726
34.308306 34.296102 34.283126 34.269382 34.254885 34.239640 34.223664 34.206963
34.189557 34.171454 34.152675 34.133230 34.113143 34.092424 34.071099 34.049182
34.026699 34.003664 33.980108 33.956044 33.931504 33.906503 33.881074 33.855232
33.829011 33.802426 33.775512 33.748284 33.720777 33.693004 33.665001 33.636781
33.608377 33.579804 33.551092 33.522253 33.493319 33.464300 33.435225 33.406102
33.376959 33.347803 33.318659 33.289531 33.260444 33.231400 33.202419 33.173504
33.144672 33.115922 33.087271 33.058717 33.030272 33.001934 32.973712 32.945602
32.917612 32.889736 32.861980 32.834337 32.806810 32.779391 32.752083 32.724875
32.697768 32.670753 32.643827 32.616980 32.590209 32.563504 32.536859 32.510265
32.483715 32.457200 32.430711 32.404240 32.377778
32.755556 32.810096 32.864653 32.919242 32.973881 33.028583 33.083367 33.138243
33.193232 33.248340 33.303588 33.358981 33.414537 33.470259 33.526163 33.582250
33.638536 33.695014 33.751701 33.808587 33.865684 33.922980 33.980485 34.038180
34.096073 34.154143 34.212393 34.270795 34.329353 34.388032 34.446833 34.505716
34.564677 34.623674 34.682697 34.741701 34.800672 34.859560 34.918348 34.976982
35.035441 35.093668 35.151639 35.209293 35.266605 35.323509 35.379980 35.435950
35.491391 35.546234 35.600451 35.653972 35.706768 35.758770 35.809949 35.860238
35.909607 35.957993 36.005365 36.051664 36.096862 36.140901 36.183756 36.225374
36.265731 36.304779 36.342497 36.378840 36.413792 36.447312 36.479387 36.509979
36.539079 36.566654 36.592697 36.617180 36.640097 36.661425 36.681160 36.699284
36.715792 36.730671 36.743919 36.755523 36.765483 36.773791 36.780446 36.785443
36.788781 36.790458 36.790474 36.788830 36.785525 36.780563 36.773943 36.765673
36.755751 36.744188 36.730984 36.716152 36.699694 36.681624 36.661947 36.640680
36.617831 36.593420 36.567455 36.539964 36.510955 36.480460 36.448490 36.415082
36.380251 36.344037 36.306457 36.267557 36.227358 36.185909 36.143233 36.099386
36.054391 36.008308 35.961164 35.913021 35.863909 35.813891 35.762999 35.711298
35.658821 35.605635 35.551771 35.497299 35.442247 35.386686 35.330643 35.274187
35.217344 35.160181 35.102721 35.045029 34.987127 34.929075 34.870891 34.812632
34.754315 34.695991 34.637672 34.579407 34.521203 34.463105 34.405117 34.347278
34.289588 34.232082 34.174757 34.117642 34.060731 34.004048 33.947585 33.891360
33.835362 33.779606 33.724078 33.668788 33.613720 33.558879 33.504249 33.449830
33.395605 33.341571 33.287708 33.234011 33.180460 33.127046 33.073749 33.020557
32.967450 32.914415 32.861432 32.808485 32.755556
33.133333 33.215158 33.297007 33.378906 33.460877 33.542947 33.625134 33.707468
33.789963 33.872647 33.955532 34.038644 34.121991 34.205600 34.289471 34.373631
34.458074 34.542825 34.627872 34.713236 34.798901 34.884885 34.971162 35.057749
35.144613 35.231764 35.319165 35.406821 35.494686 35.582761 35.670994 35.759378
35.847855 35.936414 36.024988 36.113561 36.202060 36.290462 36.378689 36.466713
36.554449 36.641865 36.728871 36.815430 36.901449 36.986886 37.071643 37.155679
37.238892 37.321238 37.402614 37.482976 37.562220 37.640301 37.717119 37.792627
37.866728 37.939377 38.010480 38.079995 38.147832 38.213953 38.278272 38.340755
38.401324 38.459947 38.516552 38.571113 38.623566 38.673886 38.722017 38.767941
38.811607 38.852999 38.892076 38.928825 38.963210 38.995223 39.024833 39.052034
39.076802 39.099133 39.119007 39.136423 39.151366 39.163834 39.173817 39.181316
39.186324 39.188841 39.188865 39.186398 39.181440 39.173993 39.164062 39.151650
39.136765 39.119411 39.099603 39.077342 39.052649 39.025528 38.996005 38.964086
38.929801 38.893161 38.854201 38.812934 38.769404 38.723627 38.675653 38.625501
38.573230 38.518863 38.462465 38.404064 38.343732 38.281502 38.217452 38.151618
38.084085 38.014894 37.944134 37.871849 37.798133 37.723032 37.646644 37.569016
37.490249 37.410391 37.329544 37.247754 37.165125 37.081702 36.997587 36.912822
36.827507 36.741683 36.655446 36.568831 36.481931 36.394778 36.307459 36.219999
36.132482 36.044928 35.957412 35.869950 35.782610 35.695402 35.608389 35.521574
35.435011 35.348700 35.262687 35.176966 35.091577 35.006509 34.921793 34.837416
34.753402 34.669731 34.586423 34.503455 34.420838 34.338548 34.256589 34.174935
34.093585 34.012510 33.931705 33.851138 33.770801 33.690661 33.610704 33.530900
33.451229 33.371661 33.292175 33.212740 33.133333
33.511111 33.620236 33.729395 33.838618 33.947942 34.057393 34.167008 34.276811
34.386839 34.497110 34.607661 34.718505 34.829677 34.941184 35.053061 35.165304
35.277949 35.390984 35.504439 35.618296 35.732582 35.847268 35.962377 36.077873
36.193770 36.310024 36.426645 36.543577 36.660825 36.778322 36.896066 37.013982
37.132060 37.250214 37.368428 37.486607 37.604727 37.722684 37.840448 37.957906
38.075021 38.191673 38.307818 38.423332 38.538163 38.652183 38.765335 38.877488
38.988582 39.098481 39.207125 39.314377 39.420176 39.524385 39.626943 39.727718
39.826648 39.923606 40.018532 40.111305 40.201868 40.290108 40.375972 40.459354
40.540207 40.618434 40.693993 40.766795 40.836806 40.903946 40.968186 41.029456
41.087732 41.142953 41.195102 41.244125 41.290010 41.332712 41.372223 41.408505
41.441553 41.471338 41.497855 41.521083 41.541019 41.557647 41.570967 41.580968
41.587649 41.591006 41.591038 41.587747 41.581133 41.571201 41.557952 41.541398
41.521539 41.498394 41.471964 41.442273 41.409325 41.373150 41.333755 41.291178
41.245427 41.196548 41.144556 41.089503 41.031407 40.970333 40.906302 40.839387
40.769617 40.697073 40.621791 40.543860 40.463323 40.380278 40.294773 40.206916
40.116759 40.024418 39.929949 39.833477 39.735059 39.634827 39.532842 39.429237
39.324075 39.217494 39.109555 39.000398 38.890083 38.778747 38.666450 38.553327
38.439434 38.324901 38.209780 38.094197 37.978197 37.861900 37.745346 37.628647
37.511835 37.395014 37.278211 37.161519 37.044957 36.928612 36.812492 36.696676
36.581165 36.466026 36.351255 36.236910 36.122978 36.009508 35.896482 35.783938
35.671853 35.560256 35.449119 35.338461 35.228252 35.118502 35.009176 34.900277
34.791767 34.683642 34.575863 34.468418 34.361266 34.254391 34.147751 34.041323
33.935066 33.828954 33.722946 33.617011 33.511111
33.888889 34.025337 34.161826 34.298399 34.435093 34.571954 34.709014 34.846319
34.983895 35.121791 35.260023 35.398641 35.537653 35.677106 35.817003 35.957385
36.098246 36.239626 36.381507 36.523924 36.666849 36.810313 36.954276 37.098761
37.243717 37.389162 37.535032 37.681336 37.827998 37.975020 38.122314 38.269870
38.417590 38.565457 38.713357 38.861265 39.009058 39.156699 39.304055 39.451082
39.597635 39.743661 39.889009 40.033618 40.177329 40.320075 40.461690 40.602104
40.741148 40.878744 41.014725 41.149010 41.281430 41.411906 41.540271 41.666445
41.790267 41.911661 42.030468 42.146618 42.259961 42.370431 42.477887 42.582270
42.683450 42.781372 42.875920 42.967047 43.054646 43.138679 43.219050 43.295730
43.368634 43.437738 43.502971 43.564314 43.621708 43.675137 43.724554 43.769948
43.811278 43.848540 43.881702 43.910760 43.935690 43.956491 43.973147 43.985657
43.994011 43.998210 43.998251 43.994134 43.985863 43.973439 43.956872 43.936163
43.911330 43.882376 43.849323 43.812178 43.770973 43.725713 43.676441 43.623167
43.565942 43.504779 43.439741 43.370847 43.298169 43.221733 43.141623 43.057872
42.970574 42.879771 42.785569 42.688016 42.587232 42.483270 42.376263 42.266271
42.153436 42.037825 41.919590 41.798802 41.675622 41.550125 41.422477 41.292756
41.161132 41.027685 40.892588 40.755917 40.617848 40.478455 40.337909 40.196284
40.053746 39.910362 39.766295 39.621604 39.476445 39.330871 39.185027 39.038958
38.892801 38.746590 38.600453 38.454415 38.308590 38.162996 38.017734 37.872813
37.728322 37.584259 37.440703 37.297644 37.155146 37.013192 36.871834 36.731048
36.590875 36.451283 36.312302 36.173894 36.036079 35.898813 35.762107 35.625913
35.490232 35.355014 35.220249 35.085886 34.951908 34.818263 34.684926 34.551845
34.418989 34.286306 34.153760 34.021302 33.888889
34.266667 34.430464 34.594313 34.758259 34.922358 35.086650 35.251192 35.416019
35.581188 35.746726 35.912690 36.079098 36.246007 36.413425 36.581405 36.749944
36.919094 37.088839 37.259224 37.430224 37.601877 37.774143 37.947056 38.120560
38.294681 38.469350 38.644583 38.820297 38.996498 39.173089 39.350064 39.527311
39.704815 39.882449 40.060186 40.237884 40.415507 40.592899 40.770012 40.946679
41.122841 41.298319 41.473045 41.646831 41.819600 41.991156 42.161415 42.330177
42.497351 42.662732 42.826227 42.987632 43.146849 43.303676 43.458017 43.609673
43.758550 43.904455 44.047298 44.186895 44.323163 44.455926 44.585108 44.710548
44.832175 44.949843 45.063489 45.172980 45.278264 45.379222 45.475810 45.567924
45.655530 45.738535 45.816915 45.890591 45.959545 46.023710 46.083075 46.137585
46.187232 46.231974 46.271805 46.306694 46.336636 46.361610 46.381614 46.396633
46.406666 46.411707 46.411756 46.406814 46.396881 46.381965 46.362067 46.337205
46.307379 46.272614 46.232914 46.188312 46.138815 46.084466 46.025275 45.961297
45.892544 45.819085 45.740939 45.658186 45.570852 45.479030 45.382755 45.282135
45.177213 45.068110 44.954878 44.837656 44.716502 44.591568 44.462924 44.330735
44.195077 44.056127 43.913970 43.768792 43.620685 43.469843 43.316361 43.160441
43.002179 42.841781 42.679343 42.515075 42.349069 42.181533 42.012557 41.842346
41.670984 41.498669 41.325479 41.151605 40.977115 40.802191 40.626892 40.451387
40.275726 40.100066 39.924444 39.749006 39.573776 39.398884 39.224347 39.050278
38.876682 38.703659 38.531202 38.359397 38.188226 38.017760 37.847974 37.678923
37.510572 37.342965 37.176059 37.009883 36.844388 36.679592 36.515440 36.351938
36.189026 36.026700 35.864898 35.703604 35.542754 35.382324 35.222251 35.062500
34.903009 34.743736 34.584622 34.425618 34.266667
34.644444 34.835624 35.026861 35.218219 35.409748 35.601514 35.793563 35.985960
36.178743 36.371980 36.565696 36.759959 36.954785 37.150239 37.346324 37.543101
37.740562 37.938762 38.137677 38.337359 38.537768 38.738947 38.940842 39.143486
39.346808 39.550833 39.755473 39.960739 40.166528 40.372840 40.579553 40.786655
40.994006 41.201581 41.409224 41.616898 41.824428 42.031764 42.238719 42.445227
42.651088 42.856226 43.060426 43.263602 43.465529 43.666112 43.865119 44.062445
44.257854 44.451237 44.642353 44.831090 45.017208 45.200594 45.381012 45.558350
45.732376 45.902984 46.069952 46.233177 46.392449 46.547673 46.698653 46.845303
46.987441 47.124991 47.257788 47.385767 47.508780 47.626772 47.739611 47.847254
47.949587 48.046574 48.138119 48.224196 48.304722 48.379679 48.448999 48.512669
48.570637 48.622893 48.669396 48.710140 48.745096 48.774260 48.797611 48.815149
48.826861 48.832748 48.832805 48.827034 48.815439 48.798020 48.774793 48.745759
48.710940 48.670339 48.623990 48.571897 48.514105 48.450622 48.381505 48.306766
48.226475 48.140652 48.049380 47.952686 47.850670 47.743368 47.630895 47.513297
47.390706 47.263179 47.130867 46.993834 46.852249 46.706189 46.555838 46.401282
46.242722 46.080251 45.914085 45.744325 45.571197 45.394808 45.215393 45.033064
44.848061 44.660498 44.470617 44.278532 44.084486 43.888588 43.691080 43.492065
43.291780 43.090319 42.887912 42.684645 42.480736 42.276260 42.071422 41.866287
41.661047 41.455751 41.250577 41.045561 40.840865 40.636511 40.432643 40.229273
40.026525 39.824397 39.622998 39.422314 39.222435 39.023336 38.825090 38.627662
38.431109 38.235385 38.040531 37.846495 37.653303 37.460893 37.269278 37.078393
36.888236 36.698736 36.509880 36.321596 36.133858 35.946593 35.759764 35.573298
35.387151 35.201251 35.015544 34.829962 34.644444
35.022222 35.240820 35.459486 35.678286 35.897292 36.116560 36.336167 36.556161
36.776619 36.997578 37.219116 37.441257 37.664079 37.887592 38.111870 38.336909
38.562780 38.789461 39.017017 39.245411 39.474698 39.704825 39.935836 40.167660
40.400330 40.633757 40.867962 41.102835 41.338383 41.574478 41.811113 42.048139
42.285534 42.523129 42.760888 42.998622 43.236280 43.473656 43.710682 43.947135
44.182934 44.417840 44.651760 44.884442 45.115779 45.345509 45.573516 45.799531
46.023430 46.244938 46.463927 46.680120 46.893386 47.103451 47.310185 47.513319
47.712726 47.908145 48.099454 48.286406 48.468886 48.646661 48.819626 48.987565
49.150384 49.307884 49.459986 49.606509 49.747385 49.882456 50.011664 50.134871
50.252031 50.363026 50.467821 50.566315 50.658484 50.744243 50.823576 50.896413
50.962746 51.022519 51.075726 51.122328 51.162320 51.195674 51.222389 51.242446
51.255844 51.262576 51.262641 51.256041 51.242776 51.222857 51.196284 51.163079
51.123242 51.076805 51.023772 50.964186 50.898054 50.825432 50.746330 50.660821
50.568920 50.470716 50.366232 50.255574 50.138775 50.015958 49.887168 49.752548
49.612154 49.466148 49.314599 49.157691 48.995503 48.828239 48.655992 48.478982
48.297314 48.111225 47.920831 47.726382 47.528001 47.325952 47.120363 46.911507
46.699514 46.484663 46.267085 46.047061 45.824719 45.600338 45.374042 45.146105
44.916644 44.685924 44.454052 44.221284 43.987714 43.753585 43.518978 43.284120
43.049077 42.814062 42.579123 42.344455 42.110093 41.876210 41.642825 41.410094
41.178020 40.946737 40.716235 40.486628 40.257893 40.030123 39.803282 39.577446
39.352566 39.128698 38.905785 38.683866 38.462874 38.242830 38.023662 37.805375
37.587891 37.371199 37.155219 36.939926 36.725237 36.511116 36.297478 36.084275
35.871426 35.658871 35.446531 35.234341 35.022222
35.400000 35.646057 35.892190 36.138480 36.384996 36.631822 36.879018 37.126672
37.374832 37.623586 37.872971 38.123074 38.373916 38.625583 38.878081 39.131489
39.385797 39.641080 39.897307 40.154545 40.412746 40.671965 40.932134 41.193297
41.455365 41.718368 41.982194 42.246861 42.512235 42.778316 43.044948 43.312115
43.579638 43.847484 44.115453 44.383494 44.651384 44.919056 45.186267 45.452933
45.718793 45.983746 46.247517 46.509988 46.770871 47.030038 47.287188 47.542183
47.794714 48.044638 48.291643 48.535578 48.776133 49.013158 49.246344 49.475545
49.700460 49.920946 50.136718 50.347638 50.553435 50.753984 50.949031 51.138464
51.322048 51.499684 51.671160 51.836391 51.995189 52.147482 52.293103 52.431997
52.564019 52.689126 52.807195 52.918194 53.022021 53.118653 53.208006 53.290067
53.364769 53.432102 53.492016 53.544507 53.589536 53.627102 53.657178 53.679766
53.694851 53.702432 53.702506 53.695072 53.680139 53.657705 53.627788 53.590389
53.545536 53.493230 53.433513 53.366390 53.291914 53.210095 53.121002 53.024650
52.921125 52.810452 52.692734 52.568005 52.436390 52.297934 52.152784 52.000996
51.842742 51.678092 51.507238 51.330268 51.147395 50.958721 50.764482 50.564792
50.359909 50.149959 49.935218 49.715822 49.492061 49.264081 49.032183 48.796518
48.557397 48.314970 48.069553 47.821297 47.570518 47.317360 47.062137 46.804987
46.546215 46.285949 46.024484 45.761935 45.498584 45.234532 44.970043 44.705202
44.440256 44.175273 43.910479 43.645924 43.381815 43.118182 42.855209 42.592911
42.331449 42.070819 41.811161 41.552456 41.294819 41.038216 40.782742 40.528349
40.275110 40.022964 39.771965 39.522041 39.273225 39.025439 38.778696 38.532911
38.288079 38.044110 37.800985 37.558609 37.316947 37.075904 36.835433 36.595437
36.355858 36.116601 35.877597 35.638756 35.400000
35.777778 36.051338 36.324988 36.598806 36.872889 37.147306 37.422157 37.697502
37.973439 38.250018 38.527337 38.805428 39.084390 39.364239 39.645067 39.926873
40.209745 40.493661 40.778699 41.064819 41.352088 41.640443 41.929940 42.220492
42.512142 42.804780 43.098431 43.392960 43.688378 43.984523 44.281387 44.578785
44.876689 45.174887 45.473334 45.771793 46.070198 46.368290 46.665982 46.962995
47.259224 47.554368 47.848306 48.140720 48.431473 48.720235 49.006854 49.290991
49.572485 49.850989 50.126335 50.398176 50.666340 50.930482 51.190432 51.445850
51.696571 51.942268 52.182782 52.417801 52.647178 52.870619 53.087990 53.299018
53.503586 53.701445 53.892491 54.076503 54.253393 54.422965 54.585150 54.739774
54.886785 55.026034 55.157483 55.281008 55.396579 55.504097 55.603541 55.694831
55.777956 55.852852 55.919514 55.977892 56.027987 56.069763 56.103220 56.128338
56.145117 56.153547 56.153629 56.145364 56.128752 56.103806 56.070526 56.028935
55.979035 55.920863 55.854420 55.779758 55.696883 55.605862 55.506706 55.399501
55.284265 55.161102 55.030043 54.891214 54.744655 54.590518 54.428856 54.259846
54.083558 53.900193 53.709838 53.512719 53.308941 53.098755 52.882282 52.659797
52.431435 52.197495 51.958124 51.713639 51.464200 51.210138 50.951620 50.688989
50.422416 50.152253 49.878670 49.602020 49.322472 49.040378 48.755897 48.469377
48.180968 47.891006 47.599629 47.307158 47.013716 46.719608 46.424939 46.129994
45.834860 45.539799 45.244879 44.950340 44.656228 44.362760 44.069960 43.778021
43.486948 43.196908 42.907888 42.620029 42.333301 42.047820 41.763539 41.480551
41.198795 40.918339 40.639110 40.361154 40.084388 39.808835 39.534403 39.261096
38.988816 38.717548 38.447189 38.177707 37.908995 37.641006 37.373634 37.106817
36.840450 36.574459 36.308741 36.043214 35.777778
36.155556 36.456670 36.757879 37.059284 37.360971 37.663048 37.965587 38.268700
38.572447 38.876938 39.182220 39.488402 39.795513 40.103658 40.412847 40.723182
41.034650 41.347344 41.661231 41.976393 42.292774 42.610443 42.929319 43.249456
43.570749 43.893235 44.216780 44.541405 44.866947 45.193408 45.520598 45.848497
46.176887 46.505726 46.834769 47.163952 47.493004 47.821837 48.150156 48.477852
48.804605 49.130288 49.454560 49.777274 50.098072 50.416792 50.733063 51.046709
51.357349 51.664799 51.968672 52.268779 52.564734 52.856346 53.143234 53.425210
53.701903 53.973133 54.238544 54.497966 54.751062 54.997675 55.237492 55.470373
55.696031 55.914342 56.125047 56.328042 56.523097 56.710126 56.888927 57.059434
57.221472 57.374993 57.519848 57.656003 57.783336 57.901823 58.011367 58.111953
58.203504 58.286013 58.359421 58.423725 58.478883 58.524894 58.561730 58.589393
58.607865 58.617148 58.617239 58.608136 58.589848 58.562374 58.525734 58.479926
58.424983 58.360905 58.287739 58.205486 58.114211 58.013920 57.904695 57.786550
57.659586 57.523829 57.379402 57.226344 57.064803 56.894831 56.716606 56.530195
56.335804 56.133519 55.923575 55.706076 55.481288 55.249333 55.010503 54.764940
54.512962 54.254726 53.990573 53.720676 53.445393 53.164908 52.879595 52.589645
52.295442 51.997178 51.695246 51.389834 51.081336 50.769935 50.456019 50.139763
49.821545 49.501526 49.180072 48.857329 48.533642 48.209140 47.884149 47.558776
47.233324 46.907878 46.582716 46.257901 45.933685 45.610107 45.287391 44.965555
44.644795 44.325108 44.006661 43.689430 43.373556 43.058997 42.745864 42.434099
42.123788 41.814857 41.507366 41.201230 40.896484 40.593031 40.290885 39.989940
39.690188 39.391518 39.093901 38.797221 38.501435 38.206421 37.912121 37.618416
37.325229 37.032446 36.739978 36.447714 36.155556
36.533333 36.862051 37.190877 37.519912 37.849272 38.179044 38.509350 38.840265
39.171910 39.504346 39.837694 40.171996 40.507373 40.843846 41.181529 41.520424
41.860638 42.202147 42.545050 42.889297 43.234975 43.582008 43.930467 44.280250
44.631409 44.983813 45.337497 45.692299 46.048231 46.405103 46.762905 47.121414
47.480596 47.840199 48.200165 48.560211 48.920254 49.279982 49.639289 49.997835
50.355490 50.711892 51.066887 51.420091 51.771333 52.120212 52.466538 52.809897
53.150089 53.486691 53.819494 54.148072 54.472213 54.791495 55.105704 55.414429
55.717462 56.014404 56.305058 56.589046 56.866184 57.136115 57.398676 57.653537
57.900551 58.139422 58.370024 58.592090 58.805517 59.010070 59.205667 59.392106
59.569324 59.737149 59.895537 60.044343 60.183539 60.313008 60.432732 60.542618
60.642657 60.732778 60.812978 60.883204 60.943458 60.993700 61.033935 61.064139
61.084315 61.094451 61.094549 61.084611 61.064636 61.034638 60.994616 60.944596
60.884576 60.814598 60.734660 60.644820 60.545080 60.435518 60.316140 60.187046
60.048252 59.899879 59.741959 59.574638 59.397963 59.212108 59.017138 58.813259
58.600555 58.379265 58.149492 57.911509 57.665441 57.411591 57.150107 56.881322
56.605402 56.322709 56.033426 55.737939 55.436444 55.129346 54.816854 54.499386
54.177155 53.850588 53.519901 53.185524 52.847667 52.506758 52.162999 51.816810
51.468381 51.118119 50.766196 50.413003 50.058691 49.703632 49.347953 48.992002
48.635884 48.279917 47.924184 47.568974 47.214343 46.860550 46.507628 46.155805
45.805090 45.455678 45.107555 44.760888 44.415640 44.071947 43.729754 43.389167
43.050112 42.712668 42.376746 42.042398 41.709520 41.378140 41.048145 40.719536
40.392193 40.066095 39.741116 39.417215 39.094262 38.772197 38.450890 38.130265
37.810192 37.490581 37.171306 36.852263 36.533333
36.911111 37.267488 37.623980 37.980711 38.337784 38.695330 39.053439 39.412245
39.771822 40.132304 40.493750 40.856290 41.219964 41.584898 41.951109 42.318716
42.687711 43.058206 43.430165 43.803688 44.178711 44.555319 44.933419 45.313078
45.694172 46.076749 46.460652 46.845907 47.232325 47.619907 48.008431 48.397872
48.787974 49.178686 49.569718 49.960992 50.352187 50.743196 51.133667 51.523467
51.912216 52.299755 52.685679 53.069806 53.451707 53.831184 54.207789 54.581307
54.951279 55.317478 55.679439 56.036928 56.389480 56.736860 57.078609 57.414494
57.744072 58.067118 58.383206 58.692127 58.993478 59.287067 59.572522 59.849669
60.118170 60.377876 60.628480 60.869859 61.101742 61.324028 61.536485 61.739033
61.931475 62.113752 62.285700 62.447279 62.598353 62.738899 62.868808 62.988068
63.096594 63.194383 63.281371 63.357560 63.422903 63.477404 63.521033 63.553794
63.575669 63.586663 63.586769 63.575990 63.554332 63.521794 63.478396 63.424136
63.359047 63.283125 63.196422 63.098936 62.990736 62.871825 62.742292 62.602150
62.451513 62.290403 62.118963 61.937230 61.745377 61.543460 61.331684 61.110127
60.879028 60.638488 60.388783 60.130038 59.862564 59.586510 59.302223 59.009874
58.709843 58.402324 58.087722 57.766250 57.438340 57.104215 56.764328 56.418911
56.068429 55.713119 55.353451 54.989660 54.622219 54.251354 53.877531 53.500967
53.122114 52.741173 52.358580 51.974514 51.589389 51.203364 50.816826 50.429907
50.042966 49.656109 49.269665 48.883711 48.498542 48.114210 47.730976 47.348862
46.968099 46.588683 46.210808 45.834447 45.459761 45.086700 44.715393 44.345770
43.977928 43.611778 43.247389 42.884655 42.523616 42.164154 41.806282 41.449873
41.094914 40.741269 40.388903 40.037675 39.687530 39.338323 38.989980 38.642358
38.295364 37.948859 37.602736 37.256860 36.911111
37.288889 37.672980 38.057201 38.441673 38.826535 39.211894 39.597894 39.984625
40.372235 40.760797 41.150456 41.541267 41.933371 42.326799 42.721687 43.118042
43.515990 43.915511 44.316718 44.719563 45.124145 45.530383 45.938360 46.347963
46.759252 47.172081 47.586489 48.002292 48.419505 48.837908 49.257489 49.677990
50.099371 50.521338 50.943820 51.366489 51.789242 52.211716 52.633780 53.055036
53.475326 53.894221 54.311536 54.726817 55.139854 55.550171 55.957538 56.361464
56.761702 57.157751 57.549353 57.936003 58.317441 58.693163 59.062910 59.426192
59.782753 60.132122 60.474058 60.808112 61.134060 61.451484 61.760183 62.059772
62.350074 62.630742 62.901628 63.162422 63.413002 63.653101 63.882622 64.101336
64.309173 64.505940 64.691588 64.865959 65.029025 65.180655 65.320838 65.449471
65.566552 65.672003 65.765827 65.847970 65.918436 65.977188 66.024232 66.059544
66.083130 66.094979 66.095094 66.083476 66.060124 66.025052 65.978256 65.919764
65.849570 65.767716 65.674198 65.569074 65.452343 65.324087 65.184308 65.033113
64.870517 64.696652 64.511549 64.315370 64.108165 63.890132 63.661342 63.422030
63.172292 62.912403 62.642485 62.362851 62.073653 61.775244 61.467800 61.151713
60.827185 60.494641 60.154305 59.806632 59.451864 59.090481 58.722737 58.349129
57.969920 57.585616 57.196482 56.803029 56.405514 56.004447 55.600074 55.192895
54.783140 54.371291 53.957560 53.542407 53.126019 52.708830 52.291000 51.872933
51.454759 51.036851 50.619307 50.202466 49.786397 49.371400 48.957515 48.545005
48.133881 47.724370 47.316454 46.910324 46.505936 46.103445 45.702785 45.304075
44.907229 44.512332 44.119279 43.728126 43.338750 42.951178 42.565275 42.181040
41.798328 41.417112 41.037240 40.658661 40.281219 39.904843 39.529376 39.154725
38.780735 38.407299 38.034265 37.661509 37.288889
37.666667 38.078531 38.490533 38.902819 39.315513 39.728768 40.142696 40.557451
40.973128 41.389883 41.807788 42.226999 42.647565 43.069637 43.493238 43.918510
44.345449 44.774186 45.204687 45.637068 46.071262 46.507369 46.945288 47.385097
47.826660 48.270031 48.715036 49.161704 49.609822 50.059390 50.510156 50.962089
51.414897 51.868519 52.322620 52.777108 53.231610 53.685999 54.139865 54.593050
55.045109 55.495853 55.944805 56.391748 56.836181 57.277858 57.716258 58.151117
58.581898 59.008322 59.429843 59.846175 60.256771 60.661344 61.059354 61.450518
61.834314 62.210469 62.578483 62.938101 63.288855 63.630511 63.962636 64.285024
64.597281 64.899230 65.190521 65.471008 65.740383 65.998531 66.245187 66.480266
66.703545 66.914965 67.114341 67.301637 67.476704 67.639523 67.789978 67.928064
68.053690 68.166862 68.267512 68.355649 68.431228 68.494257 68.544707 68.582586
68.607877 68.620587 68.620710 68.608247 68.583207 68.545585 68.495402 68.432650
68.357364 68.269534 68.169213 68.056391 67.931140 67.793457 67.643436 67.481083
67.306519 67.119764 66.920973 66.710182 66.487580 66.253230 66.007358 65.750051
65.481580 65.202061 64.911807 64.610964 64.299891 63.978765 63.647986 63.307761
62.958531 62.600528 62.234229 61.859890 61.478017 61.088885 60.693022 60.290714
59.882505 59.468686 59.049811 58.626165 58.198304 57.766506 57.331316 56.892998
56.452084 56.008816 55.563705 55.116969 54.669092 54.220263 53.770934 53.321265
52.871673 52.422283 51.973476 51.525345 51.078231 50.632194 50.187534 49.744279
49.302690 48.862763 48.424718 47.988524 47.554363 47.122173 46.692101 46.264062
45.838163 45.414301 44.992547 44.572778 44.155035 43.739178 43.325218 42.913004
42.502515 42.093592 41.686191 41.280143 40.875381 40.471735 40.069114 39.667349
39.266330 38.865890 38.465903 38.066209 37.666667
38.044444 38.484140 38.923989 39.364135 39.804740 40.245933 40.687882 41.130697
41.574550 42.019530 42.465808 42.913451 43.362626 43.813373 44.265853 44.720078
45.176197 45.634193 46.094200 46.556167 47.020212 47.486249 47.954374 48.424464
48.896592 49.370595 49.846518 50.324158 50.803532 51.284392 51.766724 52.250238
52.734884 53.220330 53.706491 54.192991 54.679710 55.166230 55.652394 56.137746
56.622094 57.104944 57.586073 58.064955 58.541336 59.014664 59.484661 59.950755
60.412646 60.869750 61.321755 61.768072 62.208383 62.642102 63.068913 63.488244
63.899787 64.302991 64.697566 65.082990 65.458995 65.825095 66.181052 66.526421
66.860995 67.184376 67.496390 67.796688 68.085130 68.361414 68.625435 68.876939
69.115850 69.341957 69.555214 69.755449 69.942638 70.116646 70.277466 70.424994