# vtk DataFile Version 3.0
Steady-state temperature (Jacobi)
ASCII
DATASET STRUCTURED_POINTS
DIMENSIONS 181 181 1
ORIGIN 0.0 0.0 0.0
SPACING 0.05 0.05 1.0
POINT_DATA 32761
SCALARS Temperature float 1
LOOKUP_TABLE default
32.000000 32.000000 32.000000 32.000000 32.000000 32.000000 32.000000 32.000000
32.000000 32.000000 32.000000 32.000000 32.000000 32.000000 32.000000 32.000000
32.000000 32.000000 32.000000 32.000000 32.000000 32.000000 32.000000 32.000000
32.000000 32.000000 32.000000 32.000000 32.000000 32.000000 32.000000 32.000000
32.000000 32.000000 32.000000 32.000000 32.000000 32.000000 32.000000 32.000000
32.000000 32.000000 32.000000 32.000000 32.000000 32.000000 32.000000 32.000000
32.000000 32.000000 32.000000 32.000000 32.000000 32.000000 32.000000 32.000000
32.000000 32.000000 32.000000 32.000000 32.000000 32.000000 32.000000 32.000000
32.000000 32.000000 32.000000 32.000000 32.000000 32.000000 32.000000 32.000000
32.000000 32.000000 32.000000 32.000000 32.000000 32.000000 32.000000 32.000000
32.000000 32.000000 32.000000 32.000000 32.000000 32.000000 32.000000 32.000000
32.000000 32.000000 32.000000 32.000000 32.000000 32.000000 32.000000 32.000000
32.000000 32.000000 32.000000 32.000000 32.000000 32.000000 32.000000 32.000000
32.000000 32.000000 32.000000 32.000000 32.000000 32.000000 32.000000 32.000000
32.000000 32.000000 32.000000 32.000000 32.000000 32.000000 32.000000 32.000000
32.000000 32.000000 32.000000 32.000000 32.000000 32.000000 32.000000 32.000000
32.000000 32.000000 32.000000 32.000000 32.000000 32.000000 32.000000 32.000000
32.000000 32.000000 32.000000 32.000000 32.000000 32.000000 32.000000 32.000000
32.000000 32.000000 32.000000 32.000000 32.000000 32.000000 32.000000 32.000000
32.000000 32.000000 32.000000 32.000000 32.000000 32.000000 32.000000 32.000000
32.000000 32.000000 32.000000 32.000000 32.000000 32.000000 32.000000 32.000000
32.000000 32.000000 32.000000 32.000000 32.000000 32.000000 32.000000 32.000000
32.000000 32.000000 32.000000 32.000000 32.000000
32.377778 32.409193 32.440612 32.472037 32.503471 32.534918 32.566379 32.597858
32.629357 32.660878 32.692423 32.723994 32.755591 32.787216 32.818869 32.850551
32.882260 32.913996 32.945757 32.977541 33.009345 33.041168 33.073002 33.104846
33.136692 33.168536 33.200370 33.232187 33.263978 33.295735 33.327447 33.359104
33.390693 33.422204 33.453622 33.484934 33.516125 33.547179 33.578081 33.608813
33.639358 33.669698 33.699813 33.729686 33.759295 33.788621 33.817643 33.846340
33.874691 33.902676 33.930271 33.957456 33.984210 34.010512 34.036340 34.061675
34.086494 34.110780 34.134511 34.157671 34.180238 34.202199 34.223533 34.244226
34.264262 34.283628 34.302307 34.320289 34.337561 34.354112 34.369931 34.385010
34.399338 34.412909 34.425714 34.437748 34.449004 34.459478 34.469165 34.478060
34.486160 34.493463 34.499965 34.505665 34.510560 34.514649 34.517931 34.520405
34.522071 34.522927 34.522975 34.522213 34.520643 34.518265 34.515080 34.511089
34.506293 34.500694 34.494295 34.487097 34.479103 34.470317 34.460743 34.450384
34.439246 34.427334 34.414654 34.401212 34.387018 34.372077 34.356400 34.339995
34.322875 34.305050 34.286532 34.267335 34.247472 34.226958 34.205809 34.184041
34.161671 34.138716 34.115197 34.091130 34.066536 34.041435 34.015847 33.989793
33.963295 33.936373 33.909050 33.881345 33.853283 33.824882 33.796165 33.767153
33.737866 33.708325 33.678550 33.648559 33.618373 33.588008 33.557484 33.526815
33.496021 33.465113 33.434111 33.403024 33.371869 33.340655 33.309397 33.278103
33.246785 33.215450 33.184109 33.152767 33.121432 33.090109 33.058806 33.027524
32.996269 32.965044 32.933851 32.902692 32.871569 32.840482 32.809433 32.778419
32.747442 32.716499 32.685590 32.654712 32.623863 32.593041 32.562243 32.531465
32.500706 32.469961 32.439227 32.408501 32.377778
32.755556 32.818388 32.881227 32.944078 33.006947 33.069841 33.132766 33.195725
33.258725 33.321769 33.384862 33.448005 33.511204 33.574457 33.637768 33.701134
33.764558 33.828034 33.891562 33.955136 34.018752 34.082402 34.146080 34.209775
34.273478 34.337174 34.400854 34.464498 34.528093 34.591618 34.655056 34.718382
34.781577 34.844612 34.907465 34.970104 35.032504 35.094630 35.156452 35.217935
35.279045 35.339744 35.399997 35.459761 35.519002 35.577674 35.635741 35.693156
35.749881 35.805870 35.861084 35.915475 35.969006 36.021630 36.073308 36.123996
36.173657 36.222246 36.269729 36.316065 36.361220 36.405155 36.447841 36.489242
36.529329 36.568072 36.605446 36.641421 36.675977 36.709088 36.740736 36.770901
36.799566 36.826713 36.852331 36.876404 36.898922 36.919874 36.939251 36.957045
36.973249 36.987856 37.000863 37.012264 37.022055 37.030235 37.036800 37.041748
37.045080 37.046793 37.046888 37.045365 37.042224 37.037467 37.031096 37.023113
37.013519 37.002320 36.989519 36.975120 36.959130 36.941555 36.922402 36.901680
36.879399 36.855569 36.830202 36.803313 36.774914 36.745025 36.713660 36.680842
36.646590 36.610928 36.573879 36.535472 36.495731 36.454689 36.412374 36.368821
36.324063 36.278137 36.231077 36.182925 36.133716 36.083494 36.032297 35.980169
35.927150 35.873286 35.818616 35.763186 35.707037 35.650216 35.592759 35.534714
35.476119 35.417017 35.357444 35.297444 35.237051 35.176304 35.115235 35.053882
34.992274 34.930445 34.868422 34.806235 34.743908 34.681470 34.618938 34.556340
34.493690 34.431011 34.368317 34.305624 34.242944 34.180292 34.117675 34.055106
33.992589 33.930133 33.867741 33.805419 33.743168 33.680991 33.618887 33.556858
33.494900 33.433012 33.371191 33.309433 33.247733 33.186088 33.124490 33.062935
33.001415 32.939925 32.878456 32.817002 32.755556
33.133333 33.227585 33.321845 33.416125 33.510432 33.604777 33.699167 33.793611
33.888115 33.982687 34.077331 34.172054 34.266858 34.361748 34.456722 34.551783
34.646928 34.742157 34.837461 34.932839 35.028278 35.123773 35.219308 35.314873
35.410447 35.506019 35.601561 35.697057 35.792476 35.887797 35.982984 36.078010
36.172836 36.267430 36.361746 36.455749 36.549389 36.642625 36.735402 36.827676
36.919388 37.010488 37.100916 37.190618 37.279529 37.367594 37.454745 37.540925
37.626065 37.710106 37.792979 37.874624 37.954971 38.033962 38.111530 38.187616
38.262154 38.335089 38.406358 38.475910 38.543683 38.609631 38.673698 38.735839
38.796004 38.854155 38.910244 38.964239 39.016098 39.065792 39.113287 39.158556
39.201571 39.242312 39.280753 39.316877 39.350666 39.382105 39.411180 39.437879
39.462192 39.484110 39.503624 39.520730 39.535421 39.547693 39.557542 39.564967
39.569965 39.572536 39.572678 39.570392 39.565680 39.558543 39.548984 39.537005
39.522612 39.505808 39.486601 39.464996 39.441004 39.414632 39.385894 39.354799
39.321365 39.285605 39.247540 39.207187 39.164571 39.119713 39.072645 39.023391
38.971986 38.918462 38.862859 38.805211 38.745566 38.683962 38.620452 38.555079
38.487900 38.418963 38.348328 38.276048 38.202188 38.126801 38.049955 37.971707
37.892128 37.811274 37.729217 37.646015 37.561740 37.476449 37.390213 37.303089
37.215146 37.126438 37.037031 36.946978 36.856342 36.765171 36.673524 36.581448
36.488995 36.396208 36.303136 36.209816 36.116292 36.022597 35.928770 35.834839
35.740838 35.646790 35.552724 35.458659 35.364619 35.270618 35.176675 35.082801
34.989011 34.895310 34.801711 34.708214 34.614828 34.521551 34.428388 34.335334
34.242391 34.149552 34.056815 33.964173 33.871620 33.779147 33.686748 33.594412
33.502131 33.409892 33.317688 33.225505 33.133333
33.511111 33.636784 33.762470 33.888182 34.013931 34.139730 34.265591 34.391523
34.517538 34.643642 34.769847 34.896156 35.022576 35.149109 35.275761 35.402527
35.529410 35.656403 35.783504 35.910700 36.037985 36.165342 36.292761 36.420217
36.547695 36.675165 36.802606 36.929982 37.057266 37.184414 37.311395 37.438157
37.564663 37.690855 37.816688 37.942099 38.067036 38.191429 38.315222 38.438339
38.560716 38.682274 38.802943 38.922640 39.041291 39.158807 39.275114 39.390119
39.503745 39.615899 39.726502 39.835459 39.942694 40.048112 40.151636 40.253176
40.352658 40.449993 40.545110 40.637927 40.728377 40.816383 40.901883 40.984806
41.065097 41.142691 41.217539 41.289584 41.358784 41.425087 41.488459 41.548856
41.606248 41.660599 41.711884 41.760075 41.805151 41.847089 41.885874 41.921488
41.953919 41.983153 42.009183 42.031998 42.051592 42.067960 42.081097 42.090999
42.097665 42.101093 42.101282 42.098233 42.091948 42.082429 42.069678 42.053702
42.034503 42.012090 41.986470 41.957653 41.925649 41.890472 41.852134 41.810655
41.766051 41.718346 41.667561 41.613726 41.556866 41.497018 41.434214 41.368497
41.299903 41.228485 41.154285 41.077361 40.997763 40.915557 40.830798 40.743559
40.653901 40.561903 40.467631 40.371170 40.272592 40.171983 40.069420 39.964995
39.858783 39.750881 39.641365 39.530331 39.417857 39.304038 39.188951 39.072690
38.955328 38.836957 38.717649 38.597489 38.476545 38.354899 38.232614 38.109765
37.986411 37.862622 37.738448 37.613954 37.489184 37.364197 37.239030 37.113734
36.988342 36.862896 36.737424 36.611962 36.486531 36.361160 36.235865 36.110669
35.985583 35.860623 35.735795 35.611112 35.486574 35.362189 35.237952 35.113867
34.989928 34.866133 34.742472 34.618941 34.495528 34.372226 34.249021 34.125902
34.002854 33.879867 33.756923 33.634010 33.511111
33.888889 34.045988 34.203103 34.360251 34.517447 34.674706 34.832042 34.989470
35.147001 35.304649 35.462421 35.620328 35.778374 35.936568 36.094908 36.253399
36.412034 36.570815 36.729729 36.888773 37.047925 37.207179 37.366506 37.525892
37.685303 37.844717 38.004091 38.163398 38.322585 38.481618 38.640437 38.798998
38.957234 39.115093 39.272498 39.429391 39.585686 39.741317 39.896192 40.050235
40.203349 40.355451 40.506437 40.656220 40.804688 40.951750 41.097292 41.241218
41.383411 41.523774 41.662187 41.798553 41.932753 42.064691 42.194249 42.321334
42.445832 42.567652 42.686687 42.802850 42.916041 43.026178 43.133170 43.236942
43.337410 43.434508 43.528159 43.618308 43.704886 43.787845 43.867126 43.942688
44.014483 44.082476 44.146628 44.206910 44.263290 44.315747 44.364255 44.408798
44.449356 44.485919 44.518470 44.547002 44.571504 44.591972 44.608399 44.620781
44.629116 44.633402 44.633638 44.629825 44.621965 44.610061 44.594116 44.574136
44.550127 44.522097 44.490057 44.454016 44.413990 44.369991 44.322042 44.270158
44.214367 44.154692 44.091165 44.023816 43.952686 43.877809 43.799237 43.717010
43.631189 43.541823 43.448981 43.352720 43.253118 43.150242 43.044176 42.934996
42.822796 42.707656 42.589678 42.468950 42.345581 42.219661 42.091304 41.960606
41.827685 41.692637 41.555582 41.416619 41.275867 41.133423 40.989407 40.843913
40.697057 40.548931 40.399646 40.249290 40.097969 39.945763 39.792773 39.639074
39.484758 39.329891 39.174560 39.018824 38.862758 38.706416 38.549864 38.393147
38.236324 38.079430 37.922518 37.765614 37.608762 37.451983 37.295310 37.138758
36.982355 36.826108 36.670036 36.514142 36.358439 36.202924 36.047604 35.892471
35.737528 35.582763 35.428173 35.273744 35.119467 34.965327 34.811312 34.657405
34.503590 34.349848 34.196164 34.042517 33.888889
34.266667 34.455196 34.643746 34.832335 35.020983 35.209707 35.398528 35.587458
35.776517 35.965715 36.155069 36.344584 36.534274 36.724139 36.914190 37.104421
37.294837 37.485425 37.676186 37.867100 38.058159 38.249337 38.440619 38.631969
38.823365 39.014762 39.206129 39.397412 39.588571 39.779541 39.970273 40.160692
40.350740 40.540332 40.729399 40.917846 41.105596 41.292544 41.478603 41.663659
41.847617 42.030355 42.211770 42.391734 42.570137 42.746843 42.921740 43.094687
43.265568 43.434240 43.600584 43.764458 43.925744 44.084299 44.240007 44.392730
44.542355 44.688750 44.831806 44.971399 45.107427 45.239773 45.368345 45.493035
45.613759 45.730421 45.842947 45.951252 46.055270 46.154927 46.250170 46.340935
46.427176 46.508841 46.585893 46.658289 46.726002 46.788995 46.847248 46.900733
46.949435 46.993334 47.032418 47.066674 47.096092 47.120664 47.140386 47.155250
47.165256 47.170400 47.170683 47.166105 47.156668 47.142375 47.123231 47.099243
47.070416 47.036761 46.998289 46.955014 46.906949 46.854116 46.796533 46.734226
46.667220 46.595551 46.519247 46.438354 46.352909 46.262967 46.168573 46.069793
45.966683 45.859317 45.747761 45.632103 45.512417 45.388801 45.261340 45.130143
44.995302 44.856937 44.715149 44.570065 44.421793 44.270467 44.116201 43.959133
43.799382 43.637090 43.472375 43.305382 43.136230 42.965062 42.791995 42.617171
42.440702 42.262727 42.083353 41.902710 41.720903 41.538053 41.354255 41.169626
40.984250 40.798235 40.611656 40.424612 40.237168 40.049411 39.861400 39.673210
39.484888 39.296502 39.108089 38.919704 38.731379 38.543157 38.355061 38.167126
37.979367 37.791809 37.604459 37.417336 37.230440 37.043782 36.857356 36.671166
36.485200 36.299458 36.113924 35.928590 35.743439 35.558457 35.373625 35.188925
35.004337 34.819839 34.635410 34.451027 34.266667
34.644444 34.864410 35.084400 35.304436 35.524542 35.744740 35.965050 36.185494
36.406088 36.626852 36.847796 37.068939 37.290285 37.511847 37.733624 37.955625
38.177841 38.400273 38.622905 38.845732 39.068729 39.291882 39.515155 39.738527
39.961953 40.185400 40.408811 40.632146 40.855335 41.078326 41.301039 41.523410
41.745346 41.966773 42.187586 42.407699 42.626995 42.845379 43.062722 43.278918
43.493827 43.707334 43.919291 44.129575 44.338029 44.544522 44.748894 44.951007
45.150698 45.347825 45.542222 45.733750 45.922240 46.107554 46.289528 46.468026
46.642890 46.813989 46.981172 47.144315 47.303277 47.457943 47.608182 47.753891
47.894950 48.031267 48.162735 48.289273 48.410789 48.527214 48.638466 48.744489
48.845216 48.940599 49.030583 49.115132 49.194199 49.267758 49.335773 49.398223
49.455082 49.506334 49.551960 49.591949 49.626289 49.654973 49.677992 49.695343
49.707021 49.713025 49.713354 49.708009 49.696993 49.680307 49.657960 49.629955
49.596303 49.557013 49.512099 49.461573 49.405457 49.343766 49.276530 49.203771
49.125526 49.041823 48.952711 48.858227 48.758428 48.653363 48.543100 48.427698
48.307240 48.181795 48.051459 47.916312 47.776463 47.632007 47.483062 47.329735
47.172158 47.010446 46.844743 46.675172 46.501887 46.325018 46.144726 45.961147
45.774447 45.584764 45.392268 45.197099 44.999426 44.799387 44.597151 44.392853
44.186656 43.978691 43.769116 43.558053 43.345653 43.132031 42.917327 42.701647
42.485121 42.267845 42.049936 41.831480 41.612583 41.393318 41.173781 40.954032
40.734154 40.514198 40.294234 40.074301 39.854459 39.634737 39.415181 39.195812
38.976667 38.757755 38.539104 38.320716 38.102609 37.884777 37.667230 37.449957
37.232959 37.016221 36.799735 36.583482 36.367450 36.151616 35.935963 35.720464
35.505098 35.289839 35.074663 34.859540 34.644444
35.022222 35.273630 35.525065 35.776555 36.028127 36.279804 36.531616 36.783580
37.035724 37.288062 37.540617 37.793399 38.046426 38.299700 38.553235 38.807026
39.061079 39.315381 39.569930 39.824703 40.079690 40.334857 40.590185 40.845627
41.101154 41.356706 41.612244 41.867696 42.123008 42.378094 42.632891 42.887297
43.141235 43.394591 43.647274 43.899157 44.150134 44.400067 44.648838 44.896293
45.142306 45.386711 45.629370 45.870108 46.108778 46.345198 46.579214 46.810636
47.039307 47.265033 47.487654 47.706977 47.922840 48.135053 48.343456 48.547863
48.748122 48.944052 49.135508 49.322320 49.504352 49.681447 49.853478 50.020303
50.181808 50.337865 50.488373 50.633220 50.772318 50.905571 51.032905 51.154237
51.269509 51.378650 51.481614 51.578345 51.668807 51.752954 51.830761 51.902192
51.967229 52.025845 52.078028 52.123760 52.163032 52.195832 52.222155 52.241995
52.255347 52.262211 52.262586 52.256473 52.243873 52.224792 52.199234 52.167208
52.128720 52.083785 52.032413 51.974625 51.910434 51.839869 51.762950 51.679715
51.590191 51.494425 51.392455 51.284339 51.170125 51.049886 50.923681 50.791597
50.653705 50.510107 50.360890 50.206170 50.046047 49.880652 49.710099 49.534534
49.354083 49.168906 48.979140 48.784956 48.586500 48.383955 48.177473 47.967243
47.753425 47.536211 47.315762 47.092273 46.865907 46.636856 46.405281 46.171370
45.935279 45.697191 45.457253 45.215643 44.972497 44.727983 44.482228 44.235386
43.987574 43.738934 43.489570 43.239610 42.989144 42.738289 42.487120 42.235740
41.984212 41.732623 41.481024 41.229490 40.978058 40.726789 40.475711 40.224870
39.974284 39.723988 39.473989 39.224312 38.974955 38.725931 38.477233 38.228863
37.980808 37.733062 37.485606 37.238427 36.991501 36.744809 36.498324 36.252022
36.005873 35.759850 35.513921 35.268056 35.022222
35.400000 35.682855 35.965742 36.248693 36.531736 36.814904 37.098222 37.381722
37.665424 37.949356 38.233533 38.517978 38.802701 39.087718 39.373031 39.658650
39.944567 40.230785 40.517283 40.804058 41.091076 41.378323 41.665753 41.953341
42.241027 42.528773 42.816506 43.104174 43.391688 43.678982 43.965952 44.252518
44.538559 44.823981 45.108646 45.392447 45.675229 45.956870 46.237203 46.516089
46.793349 47.068831 47.342343 47.613722 47.882768 48.149306 48.413129 48.674056
48.931872 49.186394 49.437404 49.684717 49.928116 50.167418 50.402408 50.632909
50.858713 51.079649 51.295520 51.506164 51.711397 51.911070 52.105012 52.293088
52.475144 52.651061 52.820700 52.983958 53.140716 53.290886 53.434365 53.571081
53.700948 53.823909 53.939893 54.048855 54.150740 54.245513 54.333133 54.413573
54.486803 54.552804 54.611554 54.663042 54.707252 54.744177 54.773808 54.796140
54.811169 54.818894 54.819314 54.812430 54.798246 54.776763 54.747990 54.711933
54.668602 54.618008 54.560167 54.495094 54.422813 54.343344 54.256721 54.162970
54.062138 53.954258 53.839391 53.717581 53.588902 53.453414 53.311203 53.162345
53.006943 52.845087 52.676899 52.502484 52.321981 52.135512 51.943232 51.745279
51.541824 51.333018 51.119047 50.900074 50.676298 50.447891 50.215062 49.977990
49.736891 49.491949 49.243383 48.991377 48.736154 48.477894 48.216817 47.953100
47.686957 47.418558 47.148108 46.875769 46.601736 46.326158 46.049218 45.771054
45.491833 45.211681 44.930749 44.649147 44.367013 44.084442 43.801554 43.518429
43.235173 42.951851 42.668551 42.385325 42.102247 41.819354 41.536706 41.254326
40.972262 40.690525 40.409148 40.128134 39.847503 39.567249 39.287381 39.007884
38.728758 38.449981 38.171545 37.893422 37.615595 37.338032 37.060712 36.783598
36.506663 36.229870 35.953186 35.676575 35.400000
35.777778 36.092086 36.406431 36.720847 37.035372 37.350035 37.664875 37.979916
38.295194 38.610729 38.926552 39.242675 39.559123 39.875902 40.193031 40.510503
40.828330 41.146496 41.465000 41.783816 42.102933 42.422309 42.741921 43.061714
43.381652 43.701662 44.021694 44.341660 44.661495 44.981090 45.300367 45.619200
45.937491 46.255099 46.571908 46.887759 47.202521 47.516016 47.828097 48.138571
48.447275 48.754001 49.058574 49.360771 49.660406 49.957246 50.251095 50.541714
50.828898 51.112404 51.392025 51.667516 51.938670 52.205244 52.467034 52.723804
52.975357 53.221465 53.461943 53.696574 53.925185 54.147577 54.363591 54.573044
54.775795 54.971682 55.160578 55.342343 55.516869 55.684033 55.843748 55.995911
56.140449 56.277278 56.406341 56.527572 56.640927 56.746354 56.843822 56.933291
57.014739 57.088138 57.153474 57.210725 57.259885 57.300939 57.333884 57.358711
57.375420 57.384006 57.384471 57.376815 57.361041 57.337154 57.305159 57.265064
57.216878 57.160615 57.096287 57.023915 56.943517 56.855125 56.758760 56.654467
56.542277 56.422247 56.294420 56.158867 56.015646 55.864845 55.706536 55.540826
55.367804 55.187596 55.000309 54.806089 54.605062 54.397392 54.183224 53.962741
53.736104 53.503514 53.265146 53.021218 52.771917 52.517472 52.258083 51.993986
51.725387 51.452530 51.175623 50.894914 50.610609 50.322954 50.032154 49.738450
49.442039 49.143154 48.841983 48.538750 48.233629 47.926832 47.618520 47.308889
46.998085 46.686287 46.373626 46.060264 45.746314 45.431920 45.117179 44.802216
44.487113 44.171976 43.856869 43.541884 43.227066 42.912492 42.598193 42.284228
41.970616 41.657400 41.344587 41.032207 40.720255 40.408747 40.097671 39.787030
39.476804 39.166985 38.857546 38.548470 38.239726 37.931289 37.623121 37.315192
37.007463 36.699898 36.392455 36.085096 35.777778
36.155556 36.501323 36.847131 37.193020 37.539030 37.885201 38.231567 38.578167
38.925029 39.272189 39.619668 39.967497 40.315688 40.664266 41.013233 41.362605
41.712372 42.062542 42.413091 42.764016 43.115280 43.466865 43.818719 44.170811
44.523071 44.875453 45.227869 45.580257 45.932510 46.284547 46.636241 46.987496
47.338164 47.688129 48.037223 48.385311 48.732207 49.077757 49.421756 49.764032
50.104363 50.442560 50.778385 51.111636 51.442062 51.769448 52.093532 52.414090
52.730854 53.043594 53.352038 53.655954 53.955071 54.249160 54.537952 54.821225
55.098719 55.370222 55.635486 55.894311 56.146466 56.391767 56.630001 56.861003
57.084580 57.300587 57.508854 57.709254 57.901643 58.085913 58.261941 58.429641
58.588911 58.739682 58.881872 59.015429 59.140288 59.256412 59.363752 59.462282
59.551965 59.632784 59.704714 59.767745 59.821860 59.867054 59.903315 59.930642
59.949031 59.958479 59.958988 59.950558 59.933193 59.906896 59.871674 59.827531
59.774482 59.712534 59.641708 59.562014 59.473482 59.376132 59.270001 59.155120
59.031538 58.899297 58.758465 58.609094 58.451270 58.285063 58.110579 57.927905
57.737168 57.538476 57.331978 57.117801 56.896118 56.667076 56.430869 56.187666
55.937681 55.681100 55.418155 55.149049 54.874030 54.593314 54.307162 54.015797
53.719489 53.418470 53.113011 52.803347 52.489750 52.172451 51.851722 51.527785
51.200905 50.871297 50.539214 50.204858 49.868470 49.530238 49.190386 48.849085
48.506543 48.162913 47.818382 47.473087 47.127196 46.780823 46.434118 46.087178
45.740131 45.393055 45.046059 44.699203 44.352578 44.006226 43.660220 43.314587
42.969382 42.624618 42.280333 41.936529 41.593228 41.250421 40.908116 40.566294
40.224953 39.884063 39.543612 39.203564 38.863896 38.524569 38.185551 37.846798
37.508274 37.169932 36.831729 36.493619 36.155556
36.533333 36.910563 37.287840 37.665207 38.042711 38.420393 38.798299 39.176463
39.554929 39.933723 40.312886 40.692435 41.072404 41.452801 41.833650 42.214948
42.596711 42.978921 43.361583 43.744663 44.128154 44.512007 44.896197 45.280658
45.665351 46.050190 46.435116 46.820025 47.204839 47.589432 47.973707 48.357514
48.740738 49.123207 49.504782 49.885272 50.264516 50.642301 51.018447 51.392720
51.764921 52.134797 52.502132 52.866657 53.228140 53.586299 53.940891 54.291623
54.638243 54.980453 55.317997 55.650573 55.977926 56.299759 56.615818 56.925814
57.229504 57.526608 57.816897 58.100108 58.376027 58.644412 58.905066 59.157771
59.402352 59.638613 59.866405 60.085556 60.295938 60.497407 60.689858 60.873171
61.047261 61.212030 61.367417 61.513342 61.649759 61.776610 61.893862 62.001472
62.099418 62.187669 62.266214 62.335031 62.394113 62.443448 62.483034 62.512862
62.532933 62.543244 62.543796 62.534591 62.515630 62.486920 62.448462 62.400268
62.342343 62.274702 62.197356 62.110327 62.013632 61.907303 61.791365 61.665865
61.530837 61.386343 61.232432 61.069185 60.896668 60.714981 60.524210 60.324479
60.115894 59.898604 59.672738 59.438470 59.195952 58.945383 58.686938 58.420840
58.147285 57.866520 57.578759 57.284268 56.983277 56.676070 56.362888 56.044027
55.719737 55.390320 55.056032 54.717177 54.374011 54.026835 53.675901 53.321505
52.963889 52.603339 52.240086 51.874401 51.506500 51.136639 50.765016 50.391868
50.017372 49.641747 49.265150 48.887776 48.509762 48.131282 47.752450 47.373419
46.994283 46.615170 46.236157 45.857349 45.478804 45.100607 44.722797 44.345440
43.968560 43.592204 43.216379 42.841117 42.466411 42.092279 41.718702 41.345682
40.973190 40.601219 40.229729 39.858702 39.488093 39.117872 38.747992 38.378415
38.009088 37.639969 37.271003 36.902142 36.533333
36.911111 37.319808 37.728555 38.137406 38.546408 38.955612 39.365061 39.774806
40.184882 40.595334 41.006191 41.417492 41.829255 42.241512 42.654268 43.067545
43.481336 43.895652 44.310468 44.725784 45.141557 45.557771 45.974365 46.391307
46.808516 47.225939 47.643475 48.061051 48.478543 48.895857 49.312845 49.729391
50.145322 50.560500 50.974728 51.387843 51.799624 52.209886 52.618386 53.024915
53.429209 53.831039 54.230119 54.626205 55.018993 55.408224 55.793579 56.174788
56.551526 56.923511 57.290415 57.651956 58.007803 58.357676 58.701252 59.038257
59.368379 59.691357 60.006893 60.314742 60.614628 60.906326 61.189583 61.464197
61.729940 61.986638 62.234090 62.472145 62.700635 62.919432 63.128396 63.327427
63.516407 63.695260 63.863894 64.022252 64.170264 64.307890 64.435078 64.551802
64.658025 64.753732 64.838899 64.913517 64.977570 65.031056 65.073966 65.106300
65.128053 65.139227 65.139822 65.129839 65.109282 65.078152 65.036457 64.984201
64.921394 64.848044 64.764169 64.669780 64.564905 64.449563 64.323793 64.187624
64.041111 63.884297 63.717257 63.540048 63.352766 63.155491 62.948343 62.731423
62.504878 62.268833 62.023464 61.768922 61.505411 61.233107 60.952241 60.663017
60.365690 60.060487 59.747688 59.427539 59.100340 58.766354 58.425895 58.079238
57.726709 57.368590 57.005213 56.636860 56.263865 55.886507 55.505115 55.119960
54.731362 54.339581 53.944923 53.547632 53.147998 52.746247 52.342648 51.937408
51.530772 51.122926 50.714093 50.304433 49.894147 49.483372 49.072282 48.660993
48.249654 47.838357 47.427228 47.016339 46.605793 46.195638 45.785958 45.376783
44.968175 44.560146 44.152740 43.745955 43.339814 42.934304 42.529432 42.125172
41.721518 41.318432 40.915897 40.513867 40.112313 39.711185 39.310443 38.910031
38.509904 38.110003 37.710276 37.310664 36.911111
37.288889 37.729054 38.169276 38.609611 39.050117 39.490844 39.931850 40.373179
40.814884 41.257002 41.699581 42.142647 42.586242 43.030379 43.475090 43.920376
44.366256 44.812717 45.259765 45.707366 46.155513 46.604153 47.053262 47.502764
47.952616 48.402720 48.853013 49.303372 49.753709 50.203880 50.653770 51.103209
51.552059 52.000121 52.447233 52.893169 53.337740 53.780696 54.221822 54.660843
55.097520 55.531555 55.962689 56.390602 56.815016 57.235593 57.652042 58.064013
58.471202 58.873250 59.269850 59.660640 60.045311 60.423505 60.794918 61.159201
61.516061 61.865165 62.206235 62.538956 62.863073 63.178296 63.484393 63.781102
64.068219 64.345512 64.612806 64.869900 65.116649 65.352884 65.578486 65.793319
65.997289 66.190289 66.372248 66.543084 66.702747 66.851178 66.988343 67.114199
67.228728 67.331900 67.423706 67.504128 67.573163 67.630801 67.677041 67.711879
67.735317 67.747354 67.747990 67.737229 67.715071 67.681522 67.636582 67.580261
67.512560 67.433496 67.343072 67.241313 67.128228 67.003853 66.868207 66.721339
66.563283 66.394104 66.213854 66.022619 65.820472 65.607524 65.383871 65.149654
64.904993 64.650060 64.385004 64.110029 63.825311 63.531086 63.227560 62.914998
62.593635 62.263761 61.925636 61.579577 61.225862 60.864828 60.496770 60.122039
59.740940 59.353834 58.961031 58.562895 58.159734 57.751911 57.339729 56.923541
56.503638 56.080362 55.653990 55.224844 54.793183 54.359310 53.923460 53.485913
53.046883 52.606622 52.165318 51.723200 51.280429 50.837206 50.393667 49.949987
49.506275 49.062680 48.619288 48.176222 47.733545 47.291356 46.849695 46.408639
45.968209 45.528459 45.089395 44.651049 44.213412 43.776497 43.340282 42.904764
42.469908 42.035699 41.602091 41.169055 40.736538 40.304502 39.872886 39.441643
39.010710 38.580032 38.149544 37.719184 37.288889
37.666667 38.138300 38.609995 39.081818 39.553827 40.026087 40.498649 40.971577
41.444916 41.918722 42.393032 42.867895 43.343337 43.819398 44.296088 44.773439
45.251444 45.730122 46.209447 46.689422 47.170004 47.651177 48.132875 48.615063
49.097652 49.580584 50.063746 50.547056 51.030373 51.513590 51.996539 52.479085
52.961031 53.442216 53.922412 54.401431 54.879016 55.354949 55.828947 56.300765
56.770091 57.236657 57.700126 58.160207 58.616542 59.068822 59.516672 59.959767
60.397721 60.830199 61.256808 61.677212 62.091017 62.497887 62.897438 63.289342
63.673227 64.048780 64.415650 64.773544 65.122135 65.461156 65.790309 66.109356
66.418033 66.716134 67.003427 67.279740 67.544877 67.798697 68.041039 68.271792
68.490829 68.698066 68.893405 69.076787 69.248139 69.407422 69.554586 69.689608
69.812453 69.923111 70.021561 70.107800 70.181816 70.243612 70.293180 70.330526
70.355646 70.368545 70.369222 70.357680 70.333922 70.297948 70.249764 70.189369
70.116775 70.031981 69.935004 69.825850 69.704544 69.571100 69.425557 69.267939
69.098302 68.916687 68.723172 68.517818 68.300728 68.071987 67.831727 67.580062
67.317157 67.043154 66.758254 66.462631 66.156520 65.840129 65.513727 65.177554
64.831910 64.477064 64.113347 63.741052 63.360535 62.972110 62.576153 62.172990
61.763012 61.346553 60.924011 60.495724 60.062086 59.623434 59.180156 58.732577
58.281076 57.825961 57.367594 56.906266 56.442316 55.976012 55.507669 55.037529
54.565882 54.092943 53.618971 53.144154 52.668722 52.192835 51.716694 51.240429
50.764213 50.288151 49.812384 49.336994 48.862095 48.387742 47.914027 47.440982
46.968673 46.497113 46.026346 45.556368 45.087201 44.618825 44.151244 43.684425
43.218356 42.752991 42.288304 41.824240 41.360760 40.897801 40.435316 39.973236
39.511503 39.050047 38.588803 38.127699 37.666667
38.044444 38.547543 39.050711 39.554018 40.057534 40.561322 41.065451 41.569978
42.074967 42.580465 43.086533 43.593204 44.100531 44.608535 45.117256 45.626701
46.136896 46.647831 47.159516 47.671920 48.185038 48.698814 49.213224 49.728187
50.243656 50.759525 51.275723 51.792114 52.308601 52.825019 53.341241 53.857073
54.372357 54.886868 55.400417 55.912746 56.423638 56.932802 57.439989 57.944879
58.447196 58.946588 59.442754 59.935319 60.423954 60.908265 61.387906 61.862464
62.331579 62.794829 63.251847 63.702206 64.145537 64.581419 65.009488 65.429333
65.840605 66.242911 66.635920 67.019264 67.392639 67.755707 68.108195 68.449799
68.780281 69.099374 69.406876 69.702559 69.986258 70.257784 70.517005 70.763772
70.997984 71.219525 71.428324 71.624296 71.807394 71.977557 72.134758 72.278958