# vtk DataFile Version 3.0
Steady-state temperature (Jacobi)
ASCII
DATASET STRUCTURED_POINTS
DIMENSIONS 181 181 1
ORIGIN 0.0 0.0 0.0
SPACING 0.05 0.05 1.0
POINT_DATA 32761
SCALARS Temperature float 1
LOOKUP_TABLE default
32.000000 32.000000 32.000000 32.000000 32.000000 32.000000 32.000000 32.000000
32.000000 32.000000 32.000000 32.000000 32.000000 32.000000 32.000000 32.000000
32.000000 32.000000 32.000000 32.000000 32.000000 32.000000 32.000000 32.000000
32.000000 32.000000 32.000000 32.000000 32.000000 32.000000 32.000000 32.000000
32.000000 32.000000 32.000000 32.000000 32.000000 32.000000 32.000000 32.000000
32.000000 32.000000 32.000000 32.000000 32.000000 32.000000 32.000000 32.000000
32.000000 32.000000 32.000000 32.000000 32.000000 32.000000 32.000000 32.000000
32.000000 32.000000 32.000000 32.000000 32.000000 32.000000 32.000000 32.000000
32.000000 32.000000 32.000000 32.000000 32.000000 32.000000 32.000000 32.000000
32.000000 32.000000 32.000000 32.000000 32.000000 32.000000 32.000000 32.000000
32.000000 32.000000 32.000000 32.000000 32.000000 32.000000 32.000000 32.000000
32.000000 32.000000 32.000000 32.000000 32.000000 32.000000 32.000000 32.000000
32.000000 32.000000 32.000000 32.000000 32.000000 32.000000 32.000000 32.000000
32.000000 32.000000 32.000000 32.000000 32.000000 32.000000 32.000000 32.000000
32.000000 32.000000 32.000000 32.000000 32.000000 32.000000 32.000000 32.000000
32.000000 32.000000 32.000000 32.000000 32.000000 32.000000 32.000000 32.000000
32.000000 32.000000 32.000000 32.000000 32.000000 32.000000 32.000000 32.000000
32.000000 32.000000 32.000000 32.000000 32.000000 32.000000 32.000000 32.000000
32.000000 32.000000 32.000000 32.000000 32.000000 32.000000 32.000000 32.000000
32.000000 32.000000 32.000000 32.000000 32.000000 32.000000 32.000000 32.000000
32.000000 32.000000 32.000000 32.000000 32.000000 32.000000 32.000000 32.000000
32.000000 32.000000 32.000000 32.000000 32.000000 32.000000 32.000000 32.000000
32.000000 32.000000 32.000000 32.000000 32.000000
32.377778 32.362282 32.346828 32.331460 32.316218 32.301144 32.286276 32.271655
32.257314 32.243291 32.229614 32.216317 32.203423 32.190962 32.178950 32.167412
32.156359 32.145811 32.135770 32.126256 32.117261 32.108802 32.100865 32.093465
32.086579 32.080222 32.074365 32.069021 32.064156 32.059784 32.055863 32.052410
32.049377 32.046784 32.044578 32.042780 32.041333 32.040263 32.039506 32.039094
32.038958 32.039134 32.039549 32.040243 32.041138 32.042280 32.043588 32.045111
32.046763 32.048601 32.050533 32.052621 32.054770 32.057045 32.059352 32.061757
32.064164 32.066642 32.069097 32.071597 32.074051 32.076528 32.078937 32.081348
32.083675 32.085985 32.088196 32.090376 32.092446 32.094470 32.096378 32.098229
32.099959 32.101624 32.103165 32.104636 32.105983 32.107254 32.108404 32.109475
32.110429 32.111300 32.112058 32.112731 32.113296 32.113775 32.114150 32.114436
32.114623 32.114718 32.114718 32.114622 32.114435 32.114149 32.113774 32.113295
32.112730 32.112056 32.111297 32.110426 32.109472 32.108400 32.107249 32.105977
32.104628 32.103156 32.101612 32.099945 32.098212 32.096357 32.094445 32.092416
32.090340 32.088154 32.085934 32.083614 32.081276 32.078852 32.076427 32.073933
32.071458 32.068934 32.066452 32.063943 32.061500 32.059055 32.056702 32.054375
32.052167 32.050013 32.048007 32.046086 32.044341 32.042715 32.041294 32.040026
32.038992 32.038146 32.037566 32.037209 32.037148 32.037346 32.037873 32.038695
32.039877 32.041390 32.043295 32.045567 32.048261 32.051357 32.054902 32.058883
32.063339 32.068259 32.073678 32.079585 32.086009 32.092938 32.100397 32.108372
32.116881 32.125909 32.135465 32.145535 32.156117 32.167195 32.178761 32.190793
32.203278 32.216188 32.229505 32.243195 32.257234 32.271587 32.286221 32.301098
32.316183 32.331433 32.346811 32.362273 32.377778
32.755556 32.724564 32.693659 32.662923 32.632441 32.602294 32.572562 32.543320
32.514643 32.486595 32.459248 32.432653 32.406874 32.381950 32.357936 32.334860
32.312766 32.291668 32.271605 32.252572 32.234605 32.217683 32.201836 32.187030
32.173291 32.160572 32.148896 32.138203 32.128518 32.119767 32.111979 32.105065
32.099062 32.093868 32.089524 32.085920 32.083105 32.080956 32.079532 32.078698
32.078524 32.078866 32.079802 32.081178 32.083085 32.085357 32.088096 32.091129
32.094565 32.098225 32.102227 32.106386 32.110826 32.115360 32.120118 32.124909
32.129868 32.134805 32.139859 32.144841 32.149890 32.154823 32.159779 32.164581
32.169366 32.173965 32.178514 32.182851 32.187108 32.191135 32.195059 32.198740
32.202298 32.205608 32.208779 32.211701 32.214472 32.216997 32.219364 32.221490
32.223452 32.225181 32.226741 32.228078 32.229241 32.230191 32.230963 32.231530
32.231915 32.232103 32.232103 32.231914 32.231529 32.230961 32.230189 32.229239
32.228075 32.226738 32.225177 32.223447 32.221484 32.219356 32.216987 32.214460
32.211685 32.208760 32.205585 32.202270 32.198706 32.195017 32.191086 32.187048
32.182779 32.178428 32.173863 32.169245 32.164437 32.159609 32.154622 32.149654
32.144563 32.139534 32.134426 32.129426 32.124396 32.119524 32.114674 32.110036
32.105478 32.101187 32.097037 32.093210 32.089589 32.086351 32.083385 32.080861
32.078677 32.076997 32.075729 32.075025 32.074805 32.075212 32.076176 32.077830
32.080114 32.083150 32.086889 32.091442 32.096767 32.102966 32.110004 32.117971
32.126839 32.136685 32.147484 32.159303 32.172118 32.185982 32.200872 32.216827
32.233823 32.251882 32.270978 32.291118 32.312270 32.334427 32.357548 32.381614
32.406575 32.432398 32.459023 32.486406 32.514479 32.543184 32.572448 32.602203
32.632369 32.662871 32.693624 32.724547 32.755556
33.133333 33.086850 33.040494 32.994395 32.948675 32.903460 32.858865 32.815009
32.771995 32.729935 32.688915 32.649037 32.610370 32.573002 32.536984 32.502393
32.469256 32.437638 32.407546 32.379035 32.352088 32.326751 32.302986 32.280834
32.260232 32.241221 32.223716 32.207758 32.193241 32.180210 32.168541 32.158282
32.149292 32.141629 32.135133 32.129874 32.125673 32.122614 32.120502 32.119435
32.119202 32.119916 32.121351 32.123636 32.126528 32.130173 32.134317 32.139117
32.144308 32.150061 32.156101 32.162613 32.169311 32.176391 32.183565 32.191034
32.198509 32.206197 32.213811 32.221562 32.229167 32.236837 32.244299 32.251763
32.258964 32.266111 32.272953 32.279692 32.286093 32.292350 32.298246 32.303966
32.309310 32.314452 32.319214 32.323753 32.327913 32.331836 32.335386 32.338690
32.341631 32.344318 32.346657 32.348734 32.350477 32.351952 32.353109 32.353991
32.354567 32.354860 32.354860 32.354566 32.353989 32.353107 32.351950 32.350474
32.348729 32.346651 32.344312 32.341623 32.338680 32.335374 32.331820 32.327894
32.323730 32.319185 32.314418 32.309268 32.303915 32.298185 32.292276 32.286003
32.279585 32.272825 32.265958 32.258782 32.251547 32.244043 32.236536 32.228812
32.221146 32.213324 32.205628 32.197846 32.190264 32.182674 32.175362 32.168126
32.161251 32.154541 32.148278 32.142276 32.136808 32.131699 32.127214 32.123192
32.119884 32.117144 32.115211 32.113953 32.113596 32.114023 32.115444 32.117760
32.121164 32.125572 32.131161 32.137862 32.145834 32.155021 32.165566 32.177421
32.190712 32.205399 32.221590 32.239250 32.258466 32.279205 32.301536 32.325422
32.350911 32.377963 32.406603 32.436783 32.468508 32.501720 32.536401 32.572481
32.609921 32.648640 32.688577 32.729640 32.771748 32.814798 32.858693 32.903319
32.948567 32.994314 33.040442 33.086824 33.133333
33.511111 33.449139 33.387339 33.325878 33.264927 33.204645 33.145197 33.086727
33.029392 32.973317 32.918645 32.865480 32.813951 32.764135 32.716146 32.670034
32.625894 32.583750 32.543683 32.505684 32.469822 32.436060 32.404457 32.374945
32.347578 32.322260 32.299043 32.277802 32.258592 32.241261 32.225873 32.212247
32.200459 32.190303 32.181869 32.174927 32.169583 32.165586 32.163058 32.161727
32.161735 32.162789 32.165051 32.168207 32.172441 32.177419 32.183347 32.189872
32.197219 32.205020 32.213518 32.222333 32.231721 32.241296 32.251325 32.261417
32.271850 32.282232 32.292847 32.303307 32.313900 32.324246 32.334634 32.344695
32.354716 32.364345 32.373862 32.382937 32.391839 32.400260 32.408458 32.416151
32.423582 32.430494 32.437114 32.443212 32.448995 32.454263 32.459199 32.463633
32.467722 32.471327 32.474578 32.477363 32.479786 32.481765 32.483372 32.484554
32.485355 32.485748 32.485748 32.485354 32.484553 32.483370 32.481761 32.479782
32.477358 32.474571 32.471318 32.467712 32.463620 32.459182 32.454243 32.448970
32.443181 32.437076 32.430448 32.423526 32.416083 32.408376 32.400161 32.391719
32.382794 32.373691 32.364141 32.354473 32.344407 32.334293 32.323844 32.313427
32.302752 32.292197 32.281473 32.270967 32.260391 32.250137 32.239924 32.230140
32.220517 32.211437 32.202643 32.194510 32.186793 32.179857 32.173474 32.167993
32.163205 32.159442 32.156515 32.154737 32.153941 32.154419 32.156026 32.159033
32.163314 32.169120 32.176346 32.185218 32.195651 32.207847 32.221736 32.237498
32.255074 32.274620 32.296086 32.319602 32.345121 32.372749 32.402439 32.434268
32.468185 32.504238 32.542369 32.582598 32.624854 32.669128 32.715333 32.763433
32.813326 32.864945 32.918174 32.972919 33.029048 33.086443 33.144958 33.204455
33.264777 33.325769 33.387266 33.449104 33.511111
33.888889 33.811435 33.734193 33.657380 33.581200 33.505864 33.431562 33.358496
33.286836 33.216770 33.148442 33.082021 33.017624 32.955401 32.895432 32.837850
32.782700 32.730093 32.680039 32.632631 32.587842 32.545753 32.506295 32.469544
32.435393 32.403913 32.374961 32.348610 32.324682 32.303254 32.284119 32.267362
32.252744 32.240368 32.229961 32.221647 32.215122 32.210535 32.207551 32.206342
32.206548 32.208366 32.211408 32.215899 32.221423 32.228233 32.235890 32.244669
32.254112 32.264517 32.275408 32.287103 32.299113 32.311773 32.324586 32.337901
32.351216 32.364890 32.378425 32.392187 32.405684 32.419284 32.432510 32.445727
32.458478 32.471121 32.483224 32.495134 32.506447 32.517497 32.527908 32.538001
32.547431 32.556497 32.564893 32.572891 32.580221 32.587129 32.593382 32.599195
32.604373 32.609099 32.613213 32.616865 32.619930 32.622524 32.624557 32.626106
32.627119 32.627634 32.627634 32.627118 32.626104 32.624554 32.622520 32.619925
32.616858 32.613204 32.609088 32.604359 32.599178 32.593361 32.587103 32.580189
32.572852 32.564845 32.556440 32.547361 32.537915 32.527805 32.517373 32.506297
32.494956 32.483010 32.470866 32.458174 32.445367 32.432084 32.418781 32.405092
32.391492 32.377613 32.363941 32.350111 32.336618 32.323101 32.310058 32.297138
32.284833 32.272808 32.261546 32.250726 32.240820 32.231527 32.223301 32.215863
32.209646 32.204396 32.200524 32.197800 32.196610 32.196752 32.198585 32.201934
32.207131 32.214025 32.222921 32.233694 32.246617 32.261586 32.278847 32.298314
32.320200 32.344433 32.371195 32.400423 32.432265 32.466661 32.503727 32.543399
32.585758 32.630733 32.678368 32.728580 32.781377 32.836660 32.894399 32.954478
33.016830 33.081319 33.147844 33.216248 33.286399 33.358122 33.431258 33.505614
33.581009 33.657237 33.734101 33.811388 33.888889
34.266667 34.173736 34.081063 33.988900 33.897505 33.807115 33.717979 33.630315
33.544357 33.460296 33.378345 33.298663 33.221443 33.146803 33.074914 33.005851
32.939762 32.876680 32.816729 32.759898 32.706294 32.655858 32.608685 32.564671
32.523905 32.486236 32.451751 32.420259 32.391851 32.366294 32.343690 32.323765
32.306640 32.292002 32.279992 32.270260 32.262974 32.257746 32.254774 32.253634
32.254556 32.257080 32.261469 32.267231 32.274660 32.283232 32.293273 32.304233
32.316465 32.329395 32.343401 32.357893 32.373269 32.388925 32.405281 32.421722
32.438682 32.455548 32.472764 32.489721 32.506870 32.523613 32.540403 32.556663
32.572839 32.588381 32.603726 32.618357 32.632694 32.646257 32.659449 32.671827
32.683772 32.694885 32.705516 32.715312 32.724593 32.733048 32.740963 32.748075
32.754628 32.760406 32.765612 32.770074 32.773954 32.777122 32.779695 32.781587
32.782869 32.783498 32.783497 32.782867 32.781584 32.779691 32.777117 32.773948
32.770066 32.765602 32.760393 32.754612 32.748054 32.740938 32.733017 32.724555
32.715266 32.705459 32.694816 32.683688 32.671725 32.659325 32.646108 32.632515
32.618142 32.603470 32.588075 32.572474 32.556231 32.539892 32.523010 32.506160
32.488888 32.471789 32.454410 32.437357 32.420183 32.403499 32.386867 32.370899
32.355169 32.340281 32.325829 32.312402 32.299615 32.288039 32.277314 32.267987
32.259729 32.253055 32.247669 32.244058 32.241955 32.241816 32.243406 32.247148
32.252840 32.260870 32.271066 32.283780 32.298870 32.316651 32.337005 32.360210
32.386167 32.415117 32.446974 32.481940 32.519936 32.561124 32.605427 32.652963
32.703650 32.757563 32.814609 32.874819 32.938084 33.004388 33.073603 33.145670
33.220436 33.297800 33.377587 33.459654 33.543803 33.629856 33.717593 33.806808
33.897262 33.988725 34.080946 34.173679 34.266667
34.644444 34.536046 34.427947 34.320450 34.213841 34.108418 34.004447 33.902212
33.801953 33.703933 33.608354 33.515459 33.425407 33.338413 33.254590 33.174126
33.097084 33.023626 32.953761 32.887631 32.825190 32.766561 32.711647 32.660559
32.613146 32.569515 32.529462 32.493099 32.460172 32.430802 32.404685 32.381962
32.362281 32.345805 32.332139 32.321472 32.313365 32.308042 32.305018 32.304554
32.306121 32.310019 32.315680 32.323439 32.332689 32.343805 32.356143 32.370112
32.385038 32.401362 32.418385 32.436574 32.455210 32.474786 32.494570 32.515074
32.535560 32.556554 32.577323 32.598402 32.619068 32.639859 32.660074 32.680248
32.699707 32.718979 32.737423 32.755554 32.772773 32.789574 32.805404 32.820731
32.835053 32.848809 32.861546 32.873668 32.884778 32.895239 32.904708 32.913504
32.921339 32.928485 32.934706 32.940223 32.944857 32.948774 32.951845 32.954185
32.955715 32.956492 32.956492 32.955713 32.954182 32.951841 32.948768 32.944850
32.940214 32.934694 32.928469 32.921321 32.913481 32.904679 32.895203 32.884734
32.873614 32.861480 32.848728 32.834955 32.820612 32.805259 32.789400 32.772564
32.755304 32.737124 32.718622 32.699283 32.679744 32.659478 32.639156 32.618239
32.597430 32.576185 32.555226 32.534013 32.513278 32.492491 32.472385 32.452444
32.433396 32.414744 32.397203 32.380298 32.364724 32.350036 32.336901 32.324905
32.314686 32.305863 32.299040 32.293874 32.290928 32.289900 32.291313 32.294902
32.301150 32.309829 32.321380 32.335611 32.352918 32.373140 32.396632 32.423258
32.453326 32.486723 32.523710 32.564187 32.608368 32.656160 32.707726 32.762970
32.822008 32.884734 32.951211 33.021318 33.095065 33.172311 33.253014 33.337006
33.424196 33.514388 33.607442 33.703137 33.801286 33.901643 34.003983 34.108037
34.213549 34.320232 34.427807 34.535975 34.644444
35.022222 34.898366 34.774855 34.652026 34.530225 34.409768 34.290991 34.174183
34.059660 33.947675 33.838519 33.732401 33.629583 33.530222 33.434551 33.342669
33.254781 33.170927 33.091283 33.015828 32.944718 32.877867 32.815416 32.757219
32.703407 32.653774 32.608450 32.567171 32.530075 32.496840 32.467623 32.442044
32.420283 32.401907 32.387129 32.375459 32.367149 32.361655 32.359269 32.359398
32.362376 32.367559 32.375327 32.384988 32.396964 32.410520 32.426120 32.442989
32.461629 32.481231 32.502331 32.524093 32.547084 32.570448 32.594776 32.619201
32.644334 32.669308 32.694746 32.719789 32.745069 32.769745 32.794449 32.818369
32.842130 32.864958 32.887465 32.908922 32.929923 32.949788 32.969085 32.987192
33.004644 33.020880 33.036395 33.050692 33.064220 33.076547 33.088075 33.098432
33.107968 33.116376 33.123946 33.130435 33.136072 33.140677 33.144413 33.147162
33.149024 33.149937 33.149937 33.149022 33.147159 33.144409 33.140670 33.136064
33.130424 33.123932 33.116358 33.107946 33.098405 33.088041 33.076506 33.064170
33.050629 33.036319 33.020788 33.004532 32.987056 32.968920 32.949590 32.929684
32.908636 32.887123 32.864549 32.841644 32.817792 32.793767 32.768941 32.744123
32.718679 32.693446 32.667790 32.642567 32.617149 32.592400 32.567704 32.543923
32.520462 32.498170 32.476477 32.456211 32.436832 32.419140 32.402630 32.388067
32.374984 32.364108 32.355011 32.348379 32.343826 32.341991 32.342535 32.346048
32.352234 32.361633 32.373993 32.389803 32.408850 32.431572 32.457789 32.487887
32.521715 32.559605 32.601426 32.647454 32.697573 32.752002 32.810627 32.873610
32.940832 33.012396 33.088168 33.168193 33.252316 33.340520 33.432625 33.528557
33.628104 33.731133 33.837405 33.946733 34.058846 34.173509 34.290425 34.409318
34.529868 34.651768 34.774683 34.898282 35.022222
35.400000 35.260698 35.121783 34.983643 34.846652 34.711191 34.577605 34.446263
34.317471 34.191574 34.068831 33.949558 33.833961 33.722321 33.614783 33.511597
33.412841 33.318733 33.229282 33.144680 33.064867 32.990013 32.919986 32.854945
32.794690 32.739374 32.688728 32.642913 32.601591 32.564941 32.532557 32.504644
32.480732 32.461057 32.445088 32.433100 32.424498 32.419604 32.417763 32.419343
32.423629 32.431041 32.440806 32.453394 32.467979 32.485078 32.503814 32.524752
32.546972 32.571078 32.596113 32.622721 32.649915 32.678368 32.707078 32.736744
32.766353 32.796624 32.826550 32.856861 32.886565 32.916396 32.945391 32.974282
33.002142 33.029692 33.056056 33.081936 33.106510 33.130456 33.153016 33.174831
33.195215 33.214767 33.232872 33.250081 33.265854 33.280688 33.294116 33.306576
33.317675 33.327787 33.336593 33.344396 33.350950 33.356485 33.360828 33.364133
33.366295 33.367394 33.367393 33.366293 33.364129 33.360823 33.356478 33.350941
33.344384 33.336578 33.327768 33.317651 33.306545 33.294078 33.280641 33.265797
33.250011 33.232786 33.214663 33.195089 33.174678 33.152831 33.130232 33.106242
33.081614 33.055671 33.029233 33.001596 32.973634 32.944625 32.915491 32.885500
32.855612 32.825088 32.794917 32.764365 32.734435 32.704405 32.675281 32.646358
32.618636 32.591433 32.565730 32.540877 32.517825 32.495962 32.476201 32.457971
32.442140 32.428185 32.416925 32.407882 32.401824 32.398325 32.398095 32.400760
32.406971 32.416404 32.429654 32.446442 32.467302 32.492000 32.521008 32.554130
32.591776 32.633777 32.680482 32.731743 32.787844 32.848645 32.914368 32.984872
33.060310 33.140535 33.225630 33.315430 33.409951 33.509001 33.612528 33.720309
33.832228 33.948027 34.067527 34.190436 34.316518 34.445449 34.576942 34.710647
34.846234 34.983332 35.121581 35.260597 35.400000
35.777778 35.623043 35.468741 35.315297 35.163143 35.012678 34.864323 34.718442
34.575434 34.435615 34.299355 34.166914 34.038628 33.914691 33.795403 33.680888
33.571411 33.467019 33.367947 33.274162 33.185875 33.102975 33.025652 32.953719
32.887359 32.826304 32.770742 32.720327 32.675260 32.635121 32.600135 32.569807
32.544396 32.523333 32.506920 32.494515 32.486469 32.482069 32.481718 32.484634
32.491276 32.500792 32.513701 32.529083 32.547514 32.568013 32.591207 32.616063
32.643257 32.671706 32.702131 32.733411 32.766305 32.799666 32.834283 32.868994
32.904613 32.939975 32.975913 33.011274 33.046897 33.081657 33.116393 33.150019
33.183366 33.215398 33.246931 33.276988 33.306362 33.334145 33.361094 33.386381
33.410718 33.433358 33.454963 33.474872 33.493686 33.510831 33.526842 33.541231
33.554462 33.566130 33.576624 33.585622 33.593431 33.599811 33.604984 33.608791
33.611367 33.612632 33.612632 33.611365 33.608787 33.604978 33.599803 33.593420
33.585608 33.576607 33.566109 33.554435 33.541197 33.526801 33.510779 33.493623
33.474794 33.454869 33.433242 33.410577 33.386210 33.360889 33.333897 33.306064
33.276631 33.246503 33.214888 33.182759 33.149299 33.115541 33.080651 33.045714
33.009885 32.974288 32.938078 32.902404 32.866429 32.831313 32.796235 32.762354
32.728872 32.696930 32.665763 32.636485 32.608367 32.582483 32.558150 32.536393
32.516579 32.499677 32.485108 32.473780 32.465169 32.460121 32.458169 32.460093
32.465483 32.475049 32.488440 32.506296 32.528316 32.555071 32.586307 32.622525
32.663508 32.709686 32.760870 32.817419 32.879162 32.946386 33.018925 33.096992
33.180419 33.269340 33.363574 33.463179 33.567951 33.677870 33.792702 33.912353
34.036552 34.165135 34.297792 34.434293 34.574292 34.717497 34.863529 35.012046
35.162643 35.314935 35.468500 35.622925 35.777778
36.155556 35.985404 35.815727 35.647005 35.479692 35.314261 35.151134 34.990766
34.833534 34.679863 34.530072 34.384554 34.243560 34.107444 33.976382 33.850689
33.730460 33.615975 33.507242 33.404512 33.307705 33.217050 33.132379 33.053909
32.981382 32.915016 32.854466 32.799960 32.751068 32.708041 32.670362 32.638319
32.611308 32.589662 32.572696 32.560791 32.553181 32.550307 32.551318 32.556717
32.565576 32.578460 32.594362 32.613912 32.636029 32.661403 32.688885 32.719224
32.751210 32.785644 32.821265 32.858919 32.897308 32.937317 32.977622 33.019140
33.060536 33.102750 33.144454 33.186602 33.227887 33.269269 33.309478 33.349470
33.388028 33.426092 33.462511 33.498203 33.532092 33.565061 33.596119 33.626107
33.654126 33.680960 33.705808 33.729393 33.751010 33.771312 33.789691 33.806722
33.821896 33.835703 33.847729 33.858373 33.867316 33.874862 33.880784 33.885286
33.888234 33.889730 33.889729 33.888232 33.885282 33.880777 33.874853 33.867304
33.858358 33.847710 33.835679 33.821866 33.806685 33.789645 33.771255 33.750941
33.729308 33.705704 33.680833 33.653971 33.625920 33.595893 33.564788 33.531764
33.497810 33.462041 33.425531 33.387360 33.348678 33.308541 33.268163 33.226586
33.185075 33.142667 33.100663 33.058106 33.016318 32.974355 32.933544 32.892961
32.853926 32.815544 32.779107 32.743761 32.710758 32.679288 32.650554 32.623796
32.600157 32.578937 32.561207 32.546330 32.535306 32.527561 32.524017 32.524168
32.528856 32.537639 32.551280 32.569398 32.592678 32.620792 32.654346 32.693060
32.737460 32.787304 32.843038 32.904448 32.971896 33.045186 33.124597 33.209935
33.301395 33.398776 33.502187 33.611407 33.726461 33.847099 33.973261 34.104663
34.241163 34.382438 34.528268 34.678290 34.832216 34.989641 35.150218 35.313509
35.479114 35.646574 35.815449 35.985264 36.155556
36.533333 36.347781 36.162753 35.978760 35.796324 35.615927 35.438080 35.263219
35.091831 34.924296 34.761066 34.602452 34.448869 34.300548 34.157864 34.020961
33.890173 33.765554 33.647404 33.535679 33.430654 33.332186 33.240534 33.155459
33.077212 33.005457 32.940454 32.881769 32.829684 32.783669 32.744039 32.710169
32.682419 32.660067 32.643531 32.631993 32.625932 32.624438 32.628057 32.635785
32.648238 32.664323 32.684725 32.708264 32.735695 32.765754 32.799263 32.834882
32.873495 32.913697 32.956425 33.000223 33.046075 33.092488 33.140484 33.188549
33.237735 33.286525 33.335993 33.384639 33.433544 33.481244 33.528823 33.574866
33.620447 33.664221 33.707239 33.748238 33.788237 33.826065 33.862699 33.897069
33.930096 33.960818 33.990091 34.017063 34.042516 34.065710 34.087341 34.106780
34.124631 34.140376 34.154519 34.166649 34.177163 34.185757 34.192718 34.197844
34.201309 34.203012 34.203011 34.201306 34.197839 34.192711 34.185747 34.177150
34.166632 34.154498 34.140350 34.124598 34.106739 34.087290 34.065648 34.042441
34.016970 33.989977 33.960679 33.929927 33.896864 33.862452 33.825767 33.787879
33.747809 33.706726 33.663609 33.619719 33.574002 33.527801 33.480038 33.432125
33.382973 33.334043 33.284249 33.235084 33.185471 33.136920 33.088372 33.041334
32.994776 32.950184 32.906566 32.865368 32.825646 32.788793 32.753919 32.722351
32.693259 32.667898 32.645501 32.627243 32.612427 32.602140 32.595759 32.594281
32.597155 32.605286 32.618196 32.636699 32.660380 32.689963 32.725093 32.766403
32.813587 32.867187 32.926936 32.993284 33.065992 33.145416 33.231329 33.323997
33.423190 33.529080 33.641425 33.760301 33.885442 34.016832 34.154172 34.297351
34.446033 34.600020 34.758931 34.922489 35.090271 35.261927 35.436995 35.615064
35.795641 35.978265 36.162424 36.347620 36.533333
36.911111 36.710181 36.509814 36.310583 36.113029 35.917715 35.725143 35.535857
35.350302 35.168993 34.992305 34.820714 34.654516 34.494144 34.339804 34.191886
34.050497 33.915991 33.788371 33.667959 33.554653 33.448751 33.350045 33.258826
33.174773 33.098184 33.028631 32.966429 32.911042 32.862818 32.821115 32.786325
32.757699 32.735687 32.719432 32.709451 32.704778 32.706004 32.712057 32.723603
32.739465 32.760389 32.785093 32.814402 32.846935 32.883592 32.922901 32.965831
33.010830 33.058929 33.108510 33.160657 33.213701 33.268773 33.324171 33.381063
33.437733 33.495375 33.552284 33.609670 33.665856 33.722060 33.776653 33.830849
33.883087 33.934565 33.983808 34.031983 34.077717 34.122134 34.163970 34.204298
34.241972 34.277996 34.311350 34.342958 34.371928 34.399093 34.423686 34.446443
34.466721 34.485145 34.501197 34.515386 34.527311 34.537361 34.545253 34.551246
34.555173 34.557164 34.557163 34.555170 34.551241 34.545245 34.537351 34.527297
34.515368 34.501174 34.485117 34.466685 34.446399 34.423632 34.399026 34.371846
34.342858 34.311226 34.277846 34.241789 34.204076 34.163703 34.121811 34.077329
34.031518 33.983252 33.933902 33.882298 33.829913 33.775545 33.720753 33.664318
33.607865 33.550171 33.492909 33.434861 33.377729 33.320310 33.264314 33.208565
33.154756 33.101749 33.051204 33.002027 32.955825 32.911560 32.870770 32.832479
32.798146 32.766863 32.739999 32.716720 32.698299 32.683981 32.674935 32.670490
32.671709 32.678001 32.690327 32.708169 32.732386 32.762532 32.799361 32.842487
32.892565 32.949259 33.013121 33.083853 33.161904 33.247001 33.339491 33.439109
33.546098 33.660189 33.781520 33.909805 34.045079 34.187025 34.335577 34.490380
34.651270 34.817850 34.989863 35.166866 35.348518 35.534336 35.723903 35.916699
36.112248 36.310001 36.509437 36.709991 36.911111
37.288889 37.072599 36.856925 36.642467 36.429840 36.219609 36.012377 35.808657
35.609024 35.413922 35.223894 35.039300 34.860639 34.688182 34.522381 34.363403
34.211662 34.067214 33.930436 33.801270 33.680068 33.566654 33.461366 33.363911
33.274625 33.193097 33.119679 33.053839 32.995961 32.945394 32.902568 32.866710
32.838309 32.816473 32.801761 32.793158 32.791300 32.795054 32.805138 32.820296
32.841333 32.866876 32.897813 32.932657 32.972380 33.015385 33.062723 33.112699
33.166434 33.222149 33.281030 33.341228 33.403983 33.467397 33.532758 33.598140
33.664864 33.731002 33.797900 33.863650 33.929613 33.993925 34.057947 34.119884
34.181085 34.239844 34.297485 34.352408 34.405897 34.456473 34.505368 34.551232
34.595230 34.636150 34.675077 34.710940 34.744729 34.775516 34.804184 34.829948
34.853574 34.874413 34.893107 34.909144 34.923028 34.934379 34.943564 34.950331
34.954901 34.957148 34.957147 34.954897 34.950325 34.943556 34.934368 34.923013
34.909125 34.893083 34.874383 34.853536 34.829901 34.804126 34.775444 34.744640
34.710831 34.674944 34.635989 34.595033 34.550993 34.505080 34.456126 34.405479
34.351907 34.296886 34.239130 34.180235 34.118876 34.056754 33.992517 33.927957
33.861707 33.795625 33.728346 33.661772 33.594549 33.528600 33.462595 33.398451
33.334873 33.273749 33.213830 33.156953 33.101923 33.050509 33.001577 32.956812
32.915151 32.878181 32.844917 32.816839 32.793045 32.774902 32.761595 32.754374
32.752513 32.757142 32.767624 32.784969 32.808622 32.839479 32.877056 32.922134
32.974294 33.034202 33.101491 33.176712 33.259535 33.350397 33.448991 33.555638
33.670037 33.792396 33.922403 34.060152 34.205309 34.357856 34.517424 34.683887
34.856833 35.036034 35.221030 35.411497 35.606931 35.806922 36.010923 36.218451
36.428924 36.641803 36.856484 37.072383 37.288889
37.666667 37.435045 37.204080 36.974436 36.746741 36.521655 36.299758 36.081688
35.867961 35.659183 35.455788 35.258342 35.067183 34.882834 34.705527 34.535739
34.373587 34.219510 34.073503 33.935974 33.806792 33.686346 33.574379 33.471272
33.376640 33.290876 33.213463 33.144825 33.084310 33.032388 32.988275 32.952500
32.924144 32.903810 32.890444 32.884728 32.885474 32.893454 32.907341 32.928001
32.953971 32.986211 33.023123 33.065761 33.112400 33.164178 33.219255 33.278849
33.341014 33.407041 33.474896 33.545936 33.618056 33.692667 33.767622 33.844376
33.920764 33.998271 34.074744 34.151690 34.226992 34.302165 34.375158 34.447481
34.517171 34.585718 34.651272 34.715287 34.776043 34.834944 34.890410 34.943782
34.993631 35.041214 35.085263 35.126936 35.165125 35.200877 35.233242 35.263144
35.289789 35.313963 35.335027 35.353621 35.369254 35.382412 35.392748 35.400590
35.405731 35.408335 35.408334 35.405727 35.400584 35.392739 35.382400 35.369238
35.353601 35.335001 35.313931 35.289748 35.263094 35.233180 35.200800 35.165030
35.126820 35.085121 35.041041 34.993420 34.943526 34.890102 34.834571 34.775595
34.714751 34.650630 34.584952 34.516260 34.446401 34.373881 34.300658 34.225218
34.149607 34.072307 33.995425 33.917450 33.840529 33.763167 33.687522 33.612129
33.539127 33.467096 33.398128 33.330856 33.267304 33.206168 33.149384 33.095719
33.047005 33.002088 32.962684 32.927727 32.898804 32.874945 32.857605 32.845910
32.841180 32.842638 32.851471 32.866995 32.890263 32.920680 32.959168 33.005209
33.059598 33.121881 33.192727 33.271733 33.359441 33.455484 33.560280 33.673477
33.795370 33.925607 34.064359 34.211260 34.366358 34.529258 34.699889 34.877817
35.062855 35.254526 35.452532 35.656349 35.865583 36.079662 36.298105 36.520302
36.745701 36.973661 37.203578 37.434793 37.666667
38.044444 37.797515 37.551297 37.306478 37.063773 36.823830 36.587349 36.354917
36.127207 35.904728 35.688115 35.477781 35.274317 35.078029 34.889462 34.708803
34.536554 34.372774 34.217930 34.071949 33.935273 33.807690 33.689635 33.580756
33.481495 33.391357 33.310810 33.239215 33.177082 33.123628 33.079423 33.043534
33.016608 32.997560 32.987124 32.984062 32.989205 33.001161 33.020859 33.046753
33.079876 33.118529 33.163844 33.213975 33.270151 33.330386 33.395999 33.464876
33.538420 33.614405 33.694306 33.775810 33.860455 33.945862 34.033621 34.121321
34.210591 34.299016 34.388253 34.475914 34.563675 34.649205 34.734181 34.816362
34.897411 34.975203 35.051371 35.123927 35.194458 35.261129 35.325466 35.385799
35.443573 35.497293 35.548305 35.595293 35.639488 35.679750 35.717180 35.750816