# vtk DataFile Version 3.0
Steady-state temperature (Jacobi)
ASCII
DATASET STRUCTURED_POINTS
DIMENSIONS 181 181 1
ORIGIN 0.0 0.0 0.0
SPACING 0.05 0.05 1.0
POINT_DATA 32761
SCALARS Temperature float 1
LOOKUP_TABLE default
32.000000 32.000000 32.000000 32.000000 32.000000 32.000000 32.000000 32.000000
32.000000 32.000000 32.000000 32.000000 32.000000 32.000000 32.000000 32.000000
32.000000 32.000000 32.000000 32.000000 32.000000 32.000000 32.000000 32.000000
32.000000 32.000000 32.000000 32.000000 32.000000 32.000000 32.000000 32.000000
32.000000 32.000000 32.000000 32.000000 32.000000 32.000000 32.000000 32.000000
32.000000 32.000000 32.000000 32.000000 32.000000 32.000000 32.000000 32.000000
32.000000 32.000000 32.000000 32.000000 32.000000 32.000000 32.000000 32.000000
32.000000 32.000000 32.000000 32.000000 32.000000 32.000000 32.000000 32.000000
32.000000 32.000000 32.000000 32.000000 32.000000 32.000000 32.000000 32.000000
32.000000 32.000000 32.000000 32.000000 32.000000 32.000000 32.000000 32.000000
32.000000 32.000000 32.000000 32.000000 32.000000 32.000000 32.000000 32.000000
32.000000 32.000000 32.000000 32.000000 32.000000 32.000000 32.000000 32.000000
32.000000 32.000000 32.000000 32.000000 32.000000 32.000000 32.000000 32.000000
32.000000 32.000000 32.000000 32.000000 32.000000 32.000000 32.000000 32.000000
32.000000 32.000000 32.000000 32.000000 32.000000 32.000000 32.000000 32.000000
32.000000 32.000000 32.000000 32.000000 32.000000 32.000000 32.000000 32.000000
32.000000 32.000000 32.000000 32.000000 32.000000 32.000000 32.000000 32.000000
32.000000 32.000000 32.000000 32.000000 32.000000 32.000000 32.000000 32.000000
32.000000 32.000000 32.000000 32.000000 32.000000 32.000000 32.000000 32.000000
32.000000 32.000000 32.000000 32.000000 32.000000 32.000000 32.000000 32.000000
32.000000 32.000000 32.000000 32.000000 32.000000 32.000000 32.000000 32.000000
32.000000 32.000000 32.000000 32.000000 32.000000 32.000000 32.000000 32.000000
32.000000 32.000000 32.000000 32.000000 32.000000
32.377778 32.393582 32.409408 32.425276 32.441205 32.457221 32.473337 32.489581
32.505964 32.522514 32.539238 32.556168 32.573304 32.590680 32.608292 32.626174
32.644319 32.662760 32.681486 32.700529 32.719872 32.739550 32.759540 32.779875
32.800528 32.821530 32.842850 32.864517 32.886496 32.908814 32.931430 32.954371
32.977591 33.001113 33.024889 33.048939 33.073209 33.097720 33.122412 33.147304
33.172334 33.197516 33.222787 33.248159 33.273565 33.299016 33.324443 33.349856
33.375183 33.400434 33.425536 33.450497 33.475245 33.499785 33.524049 33.548040
33.571690 33.595003 33.617913 33.640423 33.662471 33.684059 33.705128 33.725682
33.745663 33.765077 33.783870 33.802049 33.819563 33.836418 33.852571 33.868027
33.882746 33.896734 33.909957 33.922420 33.934092 33.944981 33.955059 33.964332
33.972778 33.980403 33.987188 33.993139 33.998241 34.002498 34.005901 34.008451
34.010143 34.010978 34.010955 34.010073 34.008334 34.005737 34.002287 33.997983
33.992834 33.986836 33.980003 33.972331 33.963837 33.954516 33.944391 33.933454
33.921733 33.909222 33.895952 33.881915 33.867148 33.851645 33.835445 33.818543
33.800982 33.782758 33.763920 33.744462 33.724438 33.703843 33.682735 33.661108
33.639025 33.616480 33.593539 33.570197 33.546522 33.522508 33.498226 33.473671
33.448913 33.423947 33.398845 33.373600 33.348283 33.322888 33.297486 33.272067
33.246701 33.221377 33.196164 33.171047 33.146094 33.121289 33.096694 33.072292
33.048143 33.024226 33.000598 32.977236 32.954191 32.931440 32.909029 32.886932
32.865192 32.843779 32.822732 32.802021 32.781678 32.761672 32.742031 32.722722
32.703768 32.685136 32.666844 32.648857 32.631189 32.613805 32.596716 32.579885
32.563318 32.546980 32.530872 32.514961 32.499243 32.483685 32.468280 32.452998
32.437826 32.422738 32.407716 32.392736 32.377778
32.755556 32.787181 32.818850 32.850600 32.882481 32.914523 32.946780 32.979276
33.012070 33.045176 33.078656 33.112519 33.146827 33.181580 33.216844 33.252609
33.288942 33.325824 33.363321 33.401405 33.440142 33.479495 33.519529 33.560196
33.601558 33.643559 33.686260 33.729591 33.773612 33.818245 33.863545 33.909424
33.955934 34.002977 34.050600 34.098699 34.147315 34.196336 34.245798 34.295581
34.345720 34.396085 34.446706 34.497451 34.548344 34.599248 34.650183 34.701011
34.751747 34.802249 34.852534 34.902457 34.952031 35.001114 35.049717 35.097701
35.145074 35.191701 35.237591 35.282611 35.326772 35.369948 35.412148 35.453253
35.493274 35.532099 35.569739 35.606092 35.641168 35.674875 35.707224 35.738130
35.767607 35.795578 35.822057 35.846977 35.870352 35.892123 35.912303 35.930844
35.947757 35.963001 35.976588 35.988485 35.998701 36.007213 36.014025 36.019124
36.022512 36.024182 36.024135 36.022372 36.018890 36.013698 36.006792 35.998186
35.987876 35.975884 35.962203 35.946863 35.929855 35.911219 35.890943 35.869076
35.845605 35.820589 35.794014 35.765947 35.736374 35.705373 35.672929 35.639129
35.603960 35.567517 35.529787 35.490874 35.450768 35.409580 35.367301 35.324049
35.279815 35.234727 35.188775 35.142091 35.094666 35.046638 34.997998 34.948886
34.899291 34.849358 34.799073 34.748581 34.697868 34.647076 34.596190 34.545351
34.494537 34.443889 34.393382 34.343149 34.293163 34.243553 34.194286 34.145484
34.097110 34.049279 34.001949 33.955227 33.909067 33.863569 33.818679 33.774489
33.730943 33.688123 33.645968 33.604549 33.563806 33.523798 33.484462 33.445848
33.407889 33.370628 33.333996 33.298024 33.262645 33.227879 33.193660 33.159998
33.126827 33.094150 33.061902 33.030076 32.998609 32.967488 32.936652 32.906079
32.875713 32.845525 32.815461 32.785488 32.755556
33.133333 33.180814 33.228355 33.276028 33.323883 33.371999 33.420416 33.469218
33.518436 33.568159 33.618405 33.669268 33.720754 33.772959 33.825877 33.879607
33.934127 33.989538 34.045804 34.103026 34.161153 34.220285 34.280357 34.341466
34.403532 34.466649 34.530723 34.595844 34.661901 34.728981 34.796958 34.865912
34.935706 35.006413 35.077880 35.150176 35.223135 35.296818 35.371049 35.445881
35.521128 35.596836 35.672809 35.749088 35.825471 35.901990 35.978437 36.054841
36.130989 36.206905 36.282375 36.357419 36.431823 36.505603 36.578549 36.650675
36.721773 36.791857 36.860727 36.928395 36.994668 37.059560 37.122888 37.184665
37.244720 37.303067 37.359547 37.414176 37.466806 37.517455 37.565990 37.612430
37.656653 37.698680 37.738403 37.775844 37.810908 37.843616 37.873887 37.901740
37.927109 37.950010 37.970389 37.988261 38.003584 38.016369 38.026587 38.034245
38.039327 38.041836 38.041766 38.039117 38.033895 38.026096 38.015738 38.002812
37.987348 37.969335 37.948814 37.925770 37.900259 37.872262 37.841848 37.808996
37.773788 37.736203 37.696336 37.654165 37.609799 37.563217 37.514541 37.463751
37.410982 37.356216 37.299603 37.241124 37.180941 37.119040 37.055593 36.990587
36.924205 36.856435 36.787472 36.717301 36.646127 36.573934 36.500933 36.427109
36.352676 36.277616 36.202145 36.126245 36.050131 35.973781 35.897408 35.820985
35.744723 35.668589 35.592787 35.517278 35.442260 35.367688 35.293751 35.220395
35.147799 35.075905 35.004879 34.934654 34.865386 34.797001 34.729640 34.663225
34.597883 34.533527 34.470273 34.408029 34.346893 34.286772 34.227748 34.169724
34.112768 34.056779 34.001813 33.947766 33.894678 33.842447 33.791099 33.740530
33.690753 33.641668 33.593273 33.545470 33.498246 33.451506 33.405224 33.359312
33.313733 33.268402 33.223273 33.178270 33.133333
33.511111 33.574494 33.637965 33.701599 33.765494 33.829714 33.894366 33.959498
34.025226 34.091582 34.158690 34.226565 34.295334 34.364998 34.435687 34.507383
34.580218 34.654156 34.729330 34.805684 34.883350 34.962253 35.042524 35.124066
35.207008 35.291232 35.376861 35.463760 35.552046 35.641561 35.732418 35.824439
35.917728 36.012091 36.107622 36.204109 36.301637 36.399980 36.499211 36.599090
36.699683 36.800734 36.902301 37.004118 37.106233 37.208371 37.310574 37.412560
37.514363 37.615698 37.716594 37.816765 37.916233 38.014716 38.112233 38.208504
38.303548 38.397091 38.489151 38.579466 38.668051 38.754656 38.839299 38.921741
39.002004 39.079864 39.155343 39.228236 39.298565 39.366143 39.430995 39.492951
39.552037 39.608101 39.661172 39.711114 39.757956 39.801582 39.842019 39.879168
39.913053 39.943595 39.970815 39.994649 40.015114 40.032163 40.045810 40.056023
40.062810 40.066156 40.066063 40.062531 40.055557 40.045158 40.031324 40.014087
39.993434 39.969411 39.942003 39.911271 39.877196 39.839856 39.799229 39.755411
39.708377 39.658243 39.604981 39.548725 39.489448 39.427303 39.362263 39.294498
39.223984 39.150909 39.075251 38.997216 38.916783 38.834175 38.749373 38.662616
38.573887 38.483438 38.391252 38.297594 38.202448 38.106088 38.008498 37.909957
37.810448 37.710257 37.609361 37.508047 37.406290 37.304376 37.202272 37.100263
36.998307 36.896685 36.795346 36.694561 36.594274 36.494742 36.395901 36.297996
36.200952 36.105001 36.010059 35.916340 35.823751 35.732491 35.642457 35.553829
35.466496 35.380620 35.296082 35.213025 35.131324 35.051101 34.972227 34.894804
34.818699 34.743993 34.670551 34.598436 34.527510 34.457817 34.389220 34.321743
34.255252 34.189752 34.125112 34.061321 33.998251 33.935874 33.874070 33.812794
33.751933 33.691428 33.631175 33.571101 33.511111
33.888889 33.968243 34.047700 34.127376 34.207358 34.287776 34.368699 34.450267
34.532532 34.615642 34.699630 34.784651 34.870715 34.957986 35.046450 35.136275
35.227424 35.320067 35.414143 35.509821 35.607017 35.705898 35.806356 35.908553
36.012355 36.117921 36.225093 36.334019 36.444519 36.556733 36.670456 36.785819
36.902593 37.020898 37.140483 37.261458 37.383550 37.506858 37.631087 37.756327
37.882266 38.008980 38.136143 38.263820 38.391673 38.519756 38.647721 38.775614
38.903080 39.030156 39.156486 39.282100 39.406642 39.530136 39.652230 39.772946
39.891939 40.009229 40.124481 40.237716 40.348610 40.457186 40.563137 40.666486
40.766946 40.864541 40.959005 41.050366 41.138376 41.223067 41.304214 41.381851
41.455776 41.526023 41.592416 41.654986 41.713581 41.768234 41.818811 41.865345
41.907726 41.945981 41.980023 42.009874 42.035466 42.056820 42.073885 42.086676
42.095163 42.099354 42.099238 42.094815 42.086095 42.073071 42.055773 42.034185
42.008358 41.978272 41.943995 41.905503 41.862886 41.816114 41.765298 41.710406
41.651573 41.588762 41.522131 41.451645 41.377481 41.299608 41.218225 41.133301
41.045060 40.953473 40.858786 40.760971 40.660299 40.556743 40.450594 40.341828
40.230754 40.117351 40.001943 39.884510 39.765389 39.644562 39.522376 39.398810
39.274219 39.148579 39.022249 38.895199 38.767791 38.639988 38.512148 38.384226
38.256574 38.129138 38.002262 37.875881 37.750325 37.625519 37.501779 37.379018
37.257534 37.137228 37.018381 36.900880 36.784984 36.670572 36.557880 36.446774
36.337468 36.229820 36.124017 36.019909 35.917661 35.817113 35.718406 35.621374
35.526134 35.432515 35.340609 35.250245 35.161488 35.074167 34.988323 34.903787
34.820576 34.738525 34.657629 34.577726 34.498791 34.420668 34.343312 34.266576
34.190396 34.114633 34.039207 33.963992 33.888889
34.266667 34.362070 34.457606 34.553388 34.649565 34.746232 34.843551 34.941594
35.040537 35.140429 35.241455 35.343639 35.447175 35.552061 35.658495 35.766450
35.876126 35.987468 36.100676 36.215668 36.332644 36.451489 36.572400 36.695235
36.820184 36.947075 37.076090 37.207026 37.340060 37.474956 37.611880 37.750570
37.891178 38.033414 38.177418 38.322872 38.469904 38.618171 38.767786 38.918385
39.070065 39.222444 39.375605 39.529148 39.683144 39.837180 39.991314 40.145124
40.298657 40.451486 40.603650 40.754718 40.904724 41.053239 41.200291 41.345460
41.488770 41.629810 41.768605 41.904758 42.038294 42.168835 42.296406 42.420651
42.541598 42.658913 42.772628 42.882435 42.988368 43.090146 43.187807 43.281096
43.370054 43.454454 43.534337 43.609504 43.679997 43.745645 43.806486 43.862376
43.913352 43.959295 44.000237 44.036084 44.066863 44.092505 44.113028 44.128386
44.138593 44.143625 44.143486 44.138176 44.127691 44.112053 44.091251 44.065330
44.034271 43.998142 43.956918 43.910692 43.859432 43.803257 43.742130 43.676197
43.605417 43.529963 43.449794 43.365108 43.275865 43.182292 43.084350 42.982292
42.876082 42.766004 42.652021 42.534444 42.413243 42.288751 42.160942 42.030174
41.896422 41.760067 41.621084 41.479873 41.336411 41.191110 41.043947 40.895346
40.745280 40.594181 40.442018 40.289223 40.135758 39.982057 39.828072 39.674231
39.520476 39.367224 39.214407 39.062429 38.911208 38.761132 38.612104 38.464495
38.318192 38.173544 38.030425 37.889157 37.749603 37.612057 37.476369 37.342807
37.211206 37.081807 36.954434 36.829299 36.706215 36.585364 36.466553 36.349933
36.235305 36.122791 36.012187 35.903585 35.796781 35.691838 35.588550 35.486953
35.386844 35.288232 35.190917 35.094884 34.999939 34.906040 34.813005 34.720768
34.629156 34.538082 34.447387 34.356964 34.266667
34.644444 34.755999 34.867698 34.979706 35.092146 35.205200 35.318968 35.433645
35.549305 35.666157 35.784248 35.903796 36.024818 36.147541 36.271950 36.398278
36.526477 36.656783 36.789115 36.923707 37.060447 37.199564 37.340911 37.484714
37.630788 37.779354 37.930192 38.083510 38.239056 38.397026 38.557133 38.719560
38.883987 39.050581 39.218991 39.389368 39.561332 39.735017 39.910013 40.086440
40.263863 40.442385 40.621549 40.801443 40.981591 41.162067 41.342382 41.522596
41.702211 41.881275 42.059287 42.236285 42.411768 42.585769 42.757791 42.927861
43.095495 43.260717 43.423057 43.582540 43.738714 43.891606 44.040788 44.186289
44.327707 44.465074 44.598018 44.726576 44.850404 44.969544 45.083686 45.192873
45.296827 45.395595 45.488931 45.576883 45.659236 45.736038 45.807106 45.872485
45.932023 45.985761 46.033574 46.075500 46.111442 46.141429 46.165393 46.183354
46.195273 46.201158 46.200996 46.194788 46.182546 46.164260 46.139971 46.109659
46.073390 46.031138 45.982996 45.928929 45.869061 45.803351 45.731951 45.654816
45.572129 45.483844 45.390175 45.291074 45.186788 45.077270 44.962801 44.843335
44.719185 44.590310 44.457055 44.319383 44.177669 44.031880 43.882421 43.729264
43.572839 43.413120 43.250562 43.085141 42.917330 42.747105 42.574955 42.400855
42.225303 42.048268 41.870258 41.691233 41.511700 41.331613 41.151474 40.971224
40.791358 40.611804 40.433043 40.254989 40.078104 39.902286 39.727978 39.555060
39.383951 39.214513 39.047139 38.881674 38.718481 38.557389 38.398729 38.242315
38.088445 37.936921 37.788005 37.641487 37.497594 37.356107 37.217217 37.080697
36.946704 36.815003 36.685719 36.558611 36.433772 36.310959 36.190231 36.071347
35.954335 35.838957 35.725209 35.612861 35.501878 35.392041 35.283285 35.175403
35.068305 34.961796 34.855761 34.750023 34.644444
35.022222 35.150035 35.278025 35.406347 35.535199 35.664711 35.795099 35.926462
36.059035 36.192885 36.328260 36.465195 36.603947 36.744518 36.887171 37.031872
37.178889 37.328151 37.479926 37.634104 37.790952 37.950322 38.112475 38.277222
38.444819 38.615035 38.788115 38.963791 39.142293 39.323314 39.507069 39.693214
39.881946 40.072883 40.266206 40.461496 40.658915 40.858012 41.058929 41.261185
41.464903 41.669573 41.875302 42.081556 42.288423 42.495354 42.702418 42.909053
43.115315 43.320633 43.525052 43.727998 43.929507 44.129009 44.326533 44.521518
44.713990 44.903401 45.089777 45.272591 45.451867 45.627105 45.798333 45.965076
46.127368 46.284766 46.437309 46.584589 46.726649 46.863116 46.994040 47.119085
47.238302 47.351395 47.458417 47.559108 47.653521 47.741433 47.822897 47.897723
47.965961 48.027455 48.082250 48.130222 48.171408 48.205717 48.233176 48.253726
48.267382 48.274116 48.273931 48.266830 48.252805 48.231886 48.204057 48.169377
48.127820 48.079475 48.024307 47.962438 47.893824 47.818621 47.736778 47.648487
47.553694 47.452624 47.345221 47.231749 47.112153 46.986732 46.855434 46.718595
46.576169 46.428528 46.275630 46.117884 45.955253 45.788183 45.616639 45.441099
45.261536 45.078454 44.891829 44.702191 44.509517 44.314357 44.116686 43.917071
43.715483 43.512497 43.308079 43.102808 42.896639 42.690151 42.483287 42.276618
42.070073 41.864209 41.658941 41.454807 41.251704 41.050148 40.850017 40.651801
40.455357 40.261146 40.069006 39.879365 39.692042 39.507429 39.325326 39.146091
38.969504 38.795886 38.625003 38.457134 38.292033 38.129939 37.970596 37.814204
37.660496 37.509633 37.361343 37.215748 37.072573 36.931901 36.793458 36.657289
36.523122 36.390968 36.260560 36.131874 36.004653 35.878838 35.754184 35.630603
35.507863 35.385846 35.264338 35.143195 35.022222
35.400000 35.544203 35.688594 35.833387 35.978741 36.124891 36.271968 36.420226
36.569761 36.720845 36.873537 37.028122 37.184623 37.343332 37.504235 37.667630
37.833459 38.002026 38.173229 38.347371 38.524308 38.704337 38.887270 39.073398
39.262487 39.454818 39.650112 39.848636 40.050067 40.254657 40.462037 40.672442
40.885460 41.101306 41.319528 41.540317 41.763185 41.988300 42.215137 42.443844
42.673861 42.905315 43.137619 43.370878 43.604481 43.838514 44.072348 44.306052
44.538984 44.771199 45.002049 45.231576 45.459134 45.684755 45.907801 46.128298
46.345622 46.559796 46.770215 46.976904 47.179283 47.377378 47.570642 47.759105
47.942252 48.120122 48.292236 48.458639 48.618893 48.773050 48.920713 49.061938
49.196371 49.324072 49.444729 49.558403 49.664825 49.764056 49.855864 49.940310
50.017202 50.086592 50.148327 50.202452 50.248850 50.287557 50.318489 50.341672
50.357055 50.364652 50.364446 50.356437 50.340640 50.317044 50.285698 50.246576
50.199762 50.145218 50.083065 50.013254 49.935941 49.851073 49.758840 49.659184
49.552337 49.438236 49.317153 49.189026 49.054169 48.912522 48.764440 48.609866
48.449201 48.282392 48.109879 47.931620 47.748093 47.559262 47.365644 47.167209
46.964509 46.757518 46.546820 46.332391 46.114841 45.894146 45.670938 45.445189
45.217544 44.987972 44.757125 44.524962 44.292137 44.058598 43.824992 43.591252
43.358014 43.125195 42.893412 42.662561 42.433239 42.205319 41.979371 41.755246
41.533481 41.313905 41.097020 40.882632 40.671205 40.462523 40.257010 40.054430
39.855162 39.658953 39.466139 39.276450 39.090177 38.907037 38.727275 38.550598
38.377206 38.206796 38.039527 37.875089 37.713596 37.554738 37.398587 37.244835
37.093510 36.944310 36.797224 36.651958 36.508463 36.366455 36.225851 36.086382
35.947929 35.810241 35.673168 35.536481 35.400000
35.777778 35.938506 36.099459 36.260832 36.422875 36.585752 36.749735 36.914952
37.081697 37.250059 37.420346 37.592609 37.767167 37.944028 38.123521 38.305608
38.490624 38.678483 38.869521 39.063606 39.261069 39.461730 39.665915 39.873393
40.084479 40.298892 40.516934 40.738275 40.963201 41.191330 41.422929 41.657569
41.895496 42.136231 42.379999 42.626277 42.875263 43.126392 43.379839 43.635000
43.892024 44.150273 44.409871 44.670152 44.931217 45.192377 45.453710 45.714510
45.974839 46.233980 46.491979 46.748117 47.002427 47.254194 47.503446 47.749477
47.992312 48.231263 48.466354 48.696925 48.923000 49.143950 49.359805 49.569973
49.774490 49.972805 50.164962 50.350453 50.529329 50.701130 50.865914 51.023267
51.173253 51.315504 51.450090 51.576689 51.695372 51.805861 51.908227 52.002237
52.087954 52.165190 52.234002 52.294239 52.345950 52.389023 52.423495 52.449291
52.466435 52.474889 52.474661 52.465750 52.448150 52.421897 52.386967 52.343435
52.291264 52.230564 52.161290 52.083589 51.997404 51.902927 51.800092 51.689132
51.569978 51.442908 51.307850 51.165127 51.014671 50.856851 50.691602 50.519341
50.340008 50.154068 49.961470 49.762723 49.557785 49.347209 49.130961 48.909635
48.683204 48.452299 48.216898 47.977665 47.734579 47.488330 47.238897 46.986990
46.732583 46.476398 46.218402 45.959321 45.699111 45.438496 45.177416 44.916585
44.655926 44.396137 44.137117 43.879542 43.623291 43.369009 43.116549 42.866525
42.618764 42.373841 42.131558 41.892450 41.656292 41.423574 41.194050 40.968162
40.745641 40.526883 40.311597 40.100131 39.892177 39.688031 39.487373 39.290449
39.096927 38.907005 38.720342 38.537086 38.356894 38.179867 38.005659 37.834326
37.665526 37.499268 37.335219 37.173344 37.013321 36.855074 36.698295 36.542869
36.388508 36.235058 36.082253 35.929908 35.777778
36.155556 36.332971 36.510620 36.688764 36.867604 37.047428 37.228400 37.410832
37.594846 37.780774 37.968696 38.158958 38.351595 38.546965 38.745053 38.946226
39.150418 39.358000 39.568853 39.783346 40.001309 40.223105 40.448508 40.677873
40.910919 41.147988 41.388743 41.633509 41.881894 42.134204 42.389992 42.649541
42.912352 43.178680 43.447978 43.720474 43.995570 44.273468 44.553526 44.835917
45.119957 45.405792 45.692703 45.980810 46.269363 46.558457 46.847321 47.136027
47.423789 47.710658 47.995844 48.279381 48.560479 48.839164 49.114653 49.386964
49.655334 49.919778 50.179556 50.434687 50.684462 50.928904 51.167342 51.399809
51.625675 51.844981 52.057146 52.262221 52.459674 52.649565 52.831415 53.005292
53.170769 53.327919 53.476367 53.616190 53.747065 53.869068 53.981924 54.085708
54.180191 54.265442 54.341277 54.407756 54.464737 54.512268 54.550249 54.578714
54.597603 54.606932 54.606683 54.596854 54.577466 54.548501 54.510018 54.461985
54.404500 54.337516 54.261173 54.175414 54.080420 53.976124 53.862754 53.740235
53.608845 53.468504 53.319540 53.161874 52.995882 52.821493 52.639133 52.448736
52.250783 52.045216 51.832567 51.612786 51.386459 51.153545 50.914676 50.669821
50.419657 50.164159 49.904042 49.639288 49.370644 49.098092 48.822407 48.543568
48.262366 47.978775 47.693596 47.406792 47.119164 46.830662 46.542079 46.253347
45.965243 45.677678 45.391407 45.106314 44.823128 44.541704 44.262738 43.986056
43.712313 43.441308 43.173652 42.909114 42.648257 42.390824 42.137328 41.887485
41.641755 41.399832 41.162122 40.928297 40.698709 40.473013 40.251504 40.033824
39.820213 39.610304 39.404281 39.201770 39.002903 38.807303 38.615052 38.425771
38.239492 38.055845 37.874812 37.696031 37.519440 37.344690 37.171674 37.000062
36.829705 36.660296 36.491646 36.323474 36.155556
36.533333 36.727595 36.922130 37.117176 37.313036 37.509911 37.708130 37.907852
38.109430 38.312977 38.518865 38.727158 38.938244 39.152135 39.369227 39.589482
39.813300 40.040586 40.271742 40.506616 40.745607 40.988502 41.235691 41.486904
41.742519 42.002202 42.266315 42.534466 42.806995 43.083450 43.364147 43.648575
43.937023 44.228924 44.524536 44.823238 45.125259 45.429925 45.737433 46.047062
46.358978 46.672418 46.987519 47.303479 47.620406 47.937471 48.254756 48.571409
48.887489 49.202133 49.515381 49.826364 50.135109 50.440753 50.743313 51.041941
51.336648 51.626612 51.911842 52.191548 52.465745 52.733680 52.995377 53.250127
53.497965 53.738233 53.970977 54.195592 54.412137 54.620063 54.819439 55.009775
55.191146 55.363122 55.525783 55.678755 55.822121 55.955562 56.079159 56.192645
56.296099 56.389299 56.472319 56.544984 56.607354 56.659302 56.700872 56.731980
56.752653 56.762849 56.762579 56.751841 56.730626 56.698976 56.656862 56.604370
56.541453 56.468239 56.384669 56.290917 56.186909 56.072867 55.948712 55.814712
55.670785 55.517253 55.354030 55.181494 54.999562 54.808670 54.608740 54.400265
54.183177 53.958027 53.724756 53.483973 53.235633 52.980396 52.718230 52.449848
52.175225 51.895122 51.609521 51.319223 51.024215 50.725329 50.422554 50.116744
49.807885 49.496847 49.183606 48.869037 48.553102 48.236674 47.919697 47.603030
47.286593 46.971227 46.656826 46.344200 46.033215 45.724648 45.418331 45.115000
44.814456 44.517388 44.223566 43.933629 43.647313 43.365203 43.087009 42.813257
42.543627 42.278591 42.017802 41.761672 41.509835 41.262640 41.019704 40.781317
40.547081 40.317227 40.091347 39.869614 39.651615 39.437464 39.226749 39.019527
38.815390 38.614343 38.415984 38.220266 38.026801 37.835494 37.645972 37.458094
37.271510 37.086034 36.901341 36.717206 36.533333
36.911111 37.122408 37.333983 37.546153 37.759157 37.973341 38.188902 38.406212
38.625421 38.846925 39.070821 39.297524 39.527079 39.759911 39.996010 40.235809
40.479239 40.726736 40.978169 41.233974 41.493956 41.758543 42.027477 42.301174
42.579311 42.862287 43.149714 43.441971 43.738602 44.039963 44.345533 44.655639
44.969698 45.288006 45.609917 45.935694 46.264634 46.596965 46.931930 47.269722
47.609534 47.951524 48.294844 48.639617 48.984959 49.330963 49.676717 50.022286
50.366739 50.710119 51.051484 51.390860 51.727305 52.060833 52.390513 52.716350
53.037435 53.353773 53.664483 53.969574 54.268206 54.560394 54.845345 55.123085
55.392874 55.654751 55.908035 56.152778 56.388360 56.614848 56.831682 57.038941
57.236131 57.423338 57.600129 57.766598 57.922372 58.067544 58.201799 58.325230
58.437576 58.538922 58.629058 58.708059 58.775764 58.832234 58.877355 58.911167
58.933606 58.944691 58.944399 58.932732 58.909710 58.875313 58.829607 58.772551
58.704257 58.624666 58.533938 58.431998 58.319055 58.195025 58.060168 57.914393
57.758016 57.590943 57.413546 57.225734 57.027942 56.820081 56.602650 56.375570
56.139402 55.894081 55.640229 55.377795 55.107465 54.829199 54.543743 54.251071
53.951980 53.646459 53.335350 53.018650 52.697242 52.371124 52.041214 51.707507
51.370941 51.031506 50.690150 50.346851 50.002560 49.657235 49.311818 48.966245
48.621439 48.277310 47.934753 47.593645 47.254849 46.918207 46.584540 46.253654
45.926323 45.602317 45.282356 44.966176 44.654438 44.346846 44.043999 43.745569
43.452093 43.163214 42.879405 42.600283 42.326255 42.056916 41.792609 41.532913
41.278103 41.027745 40.782052 40.540581 40.303481 40.070306 39.841145 39.615551
39.393556 39.174718 38.959012 38.746009 38.535627 38.327454 38.121357 37.916944
37.714033 37.512259 37.311393 37.111100 36.911111
37.288889 37.517401 37.746236 37.975676 38.206081 38.437689 38.670888 38.905870
39.143050 39.382566 39.624855 39.869998 40.118450 40.370233 40.625811 40.885146
41.148707 41.416390 41.688666 41.965365 42.246951 42.533186 42.824524 43.120656
43.422022 43.728242 44.039735 44.356050 44.677580 45.003804 45.335088 45.670839
46.011390 46.356081 46.705210 47.058052 47.414865 47.774866 48.138273 48.504245
48.872963 49.243535 49.616104 49.989734 50.364534 50.739531 51.114802 51.489350
51.863221 52.235403 52.605921 52.973756 53.338916 53.700390 54.058174 54.411276
54.759686 55.102440 55.439532 55.770036 56.093952 56.410401 56.719398 57.020116
57.312585 57.596041 57.870529 58.135351 58.390567 58.635549 58.870372 59.094476
59.307949 59.510298 59.701622 59.881493 60.050014 60.206823 60.352022 60.485307
60.606777 60.716186 60.813619 60.898887 60.972062 61.033001 61.081760 61.118247
61.142494 61.154457 61.154145 61.141560 61.116689 61.079578 61.030193 60.968626
60.894822 60.808923 60.710855 60.600810 60.478702 60.344775 60.198934 60.041480
59.872311 59.691793 59.499821 59.296824 59.082704 58.857957 58.622493 58.376877
58.121031 57.855590 57.580492 57.296440 57.003389 56.702108 56.392568 56.075600
55.751191 55.420226 55.082706 54.739564 54.390806 54.037407 53.679374 53.317710
52.952419 52.584524 52.214016 51.841925 51.468228 51.093947 50.719039 50.344510
49.970288 49.597356 49.225609 48.855994 48.488370 48.123644 47.761635 47.403201
47.048121 46.697197 46.350170 46.007781 45.669732 45.336701 45.008354 44.685300
44.367172 44.054512 43.746920 43.444869 43.147934 42.856516 42.570170 42.289224
42.013217 41.742409 41.476326 41.215160 40.958429 40.706259 40.458167 40.214214
39.973920 39.737285 39.503837 39.273516 39.045866 38.820769 38.597788 38.376751
38.157247 37.939054 37.721789 37.505184 37.288889
37.666667 37.912605 38.158871 38.405833 38.653775 38.903099 39.154040 39.407032
39.662253 39.920165 40.180889 40.444904 40.712271 40.983484 41.258538 41.537936
41.821606 42.110054 42.403138 42.701359 43.004504 43.313065 43.626754 43.946051
44.270591 44.600833 44.936337 45.277538 45.623917 45.975881 46.332837 46.695154
47.062166 47.434206 47.810536 48.191447 48.576133 48.964843 49.356707 49.751931
50.149586 50.549836 50.951701 51.355304 51.759621 52.164738 52.569597 52.974250
53.377618 53.779723 54.179473 54.576871 54.970825 55.361322 55.747284 56.128689
56.504485 56.874651 57.238169 57.595026 57.944252 58.285844 58.618889 58.943401
59.258530 59.564310 59.859960 60.145533 60.420321 60.684398 60.937130 61.178606
61.408268 61.626218 61.831971 62.025637 62.206801 62.375576 62.531613 62.675023
62.805521 62.923207 63.027855 63.119553 63.198129 63.263653 63.316005 63.355233
63.381266 63.394129 63.393798 63.380273 63.353577 63.313685 63.260668 63.194476
63.115231 63.022861 62.917539 62.799175 62.667999 62.523906 62.367184 62.197722
62.015870 61.821514 61.615071 61.396431 61.166080 60.923917 60.670503 60.405749
60.130290 59.844055 59.547756 59.241339 58.925590 58.600476 58.266852 57.924705
57.574955 57.217604 56.853631 56.483049 56.106885 55.725159 55.338935 54.948234
54.554145 54.156681 53.756946 53.354938 52.951761 52.547393 52.142927 51.738313
51.334621 50.931766 50.530788 50.131564 49.735089 49.341201 48.950844 48.563813
48.180995 47.802141 47.428074 47.058504 46.694186 46.334787 45.980992 45.632430
45.289713 44.952433 44.621128 44.295360 43.975589 43.661352 43.353035 43.050150
42.753011 42.461113 42.174695 41.893244 41.616924 41.345218 41.078222 40.815417
40.556831 40.301954 40.050746 39.802712 39.557748 39.315376 39.075436 38.837472
38.601267 38.366393 38.132585 37.899448 37.666667
38.044444 38.308008 38.571947 38.836591 39.102356 39.369520 39.638534 39.909623
40.183268 40.459632 40.739221 41.022136 41.308899 41.599545 41.894608 42.194052
42.498418 42.807596 43.122126 43.441822 43.767217 44.098049 44.434837 44.777237
45.125751 45.479955 45.840324 46.206353 46.578488 46.956142 47.339725 47.728570
48.123048 48.522413 48.926992 49.335965 49.749614 50.167044 50.588492 51.012997
51.440748 51.870724 52.303068 52.736707 53.171742 53.607056 54.042711 54.477560
54.911628 55.343751 55.773927 56.200984 56.624901 57.044513 57.459786 57.869577
58.273849 58.671492 59.062473 59.445729 59.821238 60.187994 60.545992 60.894293
61.232914 61.560986 61.878551 62.184819 62.479854 62.762948 63.034184 63.292937
63.539308 63.772749 63.993378 64.200722 64.394904 64.575528 64.742716 64.896139