# vtk DataFile Version 3.0
Steady-state temperature (Jacobi)
ASCII
DATASET STRUCTURED_POINTS
DIMENSIONS 181 181 1
ORIGIN 0.0 0.0 0.0
SPACING 0.05 0.05 1.0
POINT_DATA 32761
SCALARS Temperature float 1
LOOKUP_TABLE default
32.000000 32.000000 32.000000 32.000000 32.000000 32.000000 32.000000 32.000000
32.000000 32.000000 32.000000 32.000000 32.000000 32.000000 32.000000 32.000000
32.000000 32.000000 32.000000 32.000000 32.000000 32.000000 32.000000 32.000000
32.000000 32.000000 32.000000 32.000000 32.000000 32.000000 32.000000 32.000000
32.000000 32.000000 32.000000 32.000000 32.000000 32.000000 32.000000 32.000000
32.000000 32.000000 32.000000 32.000000 32.000000 32.000000 32.000000 32.000000
32.000000 32.000000 32.000000 32.000000 32.000000 32.000000 32.000000 32.000000
32.000000 32.000000 32.000000 32.000000 32.000000 32.000000 32.000000 32.000000
32.000000 32.000000 32.000000 32.000000 32.000000 32.000000 32.000000 32.000000
32.000000 32.000000 32.000000 32.000000 32.000000 32.000000 32.000000 32.000000
32.000000 32.000000 32.000000 32.000000 32.000000 32.000000 32.000000 32.000000
32.000000 32.000000 32.000000 32.000000 32.000000 32.000000 32.000000 32.000000
32.000000 32.000000 32.000000 32.000000 32.000000 32.000000 32.000000 32.000000
32.000000 32.000000 32.000000 32.000000 32.000000 32.000000 32.000000 32.000000
32.000000 32.000000 32.000000 32.000000 32.000000 32.000000 32.000000 32.000000
32.000000 32.000000 32.000000 32.000000 32.000000 32.000000 32.000000 32.000000
32.000000 32.000000 32.000000 32.000000 32.000000 32.000000 32.000000 32.000000
32.000000 32.000000 32.000000 32.000000 32.000000 32.000000 32.000000 32.000000
32.000000 32.000000 32.000000 32.000000 32.000000 32.000000 32.000000 32.000000
32.000000 32.000000 32.000000 32.000000 32.000000 32.000000 32.000000 32.000000
32.000000 32.000000 32.000000 32.000000 32.000000 32.000000 32.000000 32.000000
32.000000 32.000000 32.000000 32.000000 32.000000 32.000000 32.000000 32.000000
32.000000 32.000000 32.000000 32.000000 32.000000
32.377778 32.399823 32.421881 32.443969 32.466099 32.488286 32.510542 32.532884
32.555320 32.577868 32.600534 32.623336 32.646278 32.669379 32.692638 32.716075
32.739686 32.763490 32.787481 32.811677 32.836069 32.860673 32.885477 32.910497
32.935716 32.961150 32.986778 33.012613 33.038632 33.064847 33.091231 33.117793
33.144503 33.171368 33.198355 33.225470 33.252675 33.279975 33.307329 33.334740
33.362164 33.389602 33.417009 33.444382 33.471676 33.498886 33.525964 33.552906
33.579662 33.606226 33.632549 33.658623 33.684399 33.709870 33.734986 33.759740
33.784084 33.808011 33.831473 33.854464 33.876939 33.898892 33.920281 33.941100
33.961310 33.980905 33.999850 34.018141 34.035744 34.052657 34.068850 34.084320
34.099042 34.113014 34.126213 34.138639 34.150272 34.161111 34.171141 34.180361
34.188757 34.196331 34.203072 34.208980 34.214046 34.218272 34.221652 34.224186
34.225871 34.226707 34.226693 34.225829 34.224116 34.221554 34.218147 34.213894
34.208801 34.202867 34.196100 34.188501 34.180081 34.170837 34.160786 34.149925
34.138273 34.125829 34.112613 34.098625 34.083890 34.068408 34.052206 34.035286
34.017678 33.999386 33.980442 33.960850 33.940648 33.919841 33.898467 33.876532
33.854081 33.831118 33.807688 33.783800 33.759500 33.734796 33.709736 33.684327
33.658621 33.632623 33.606385 33.579913 33.553258 33.526425 33.499466 33.472384
33.445229 33.418004 33.390756 33.363489 33.336247 33.309031 33.281883 33.254803
33.227830 33.200962 33.174236 33.147645 33.121226 33.094969 33.068907 33.043029
33.017363 32.991897 32.966657 32.941628 32.916831 32.892251 32.867905 32.843777
32.819881 32.796199 32.772741 32.749488 32.726448 32.703602 32.680953 32.658481
32.636187 32.614051 32.592071 32.570228 32.548516 32.526915 32.505419 32.484009
32.462674 32.441397 32.420166 32.398964 32.377778
32.755556 32.799656 32.843785 32.887970 32.932243 32.976626 33.021154 33.065844
33.110733 33.155835 33.201187 33.246796 33.292702 33.338907 33.385450 33.432326
33.479575 33.527186 33.575198 33.623593 33.672408 33.721619 33.771261 33.821304
33.871779 33.922650 33.973944 34.025619 34.077699 34.130133 34.182944 34.236073
34.289539 34.343276 34.397298 34.451534 34.505995 34.560602 34.615362 34.670192
34.725094 34.779979 34.834846 34.889603 34.944245 34.998676 35.052887 35.106782
35.160348 35.213488 35.266187 35.318346 35.369951 35.420903 35.471187 35.520705
35.569443 35.617304 35.664276 35.710266 35.755261 35.799174 35.841994 35.883637
35.924094 35.963290 36.001214 36.037799 36.073037 36.106864 36.139277 36.170219
36.199688 36.227632 36.254051 36.278902 36.302185 36.323863 36.343937 36.362375
36.379181 36.394328 36.407818 36.419632 36.429772 36.438223 36.444987 36.450055
36.453427 36.455099 36.455070 36.453343 36.449915 36.444792 36.437973 36.429468
36.419274 36.407408 36.393866 36.378670 36.361816 36.343331 36.323213 36.301493
36.278171 36.253283 36.226829 36.198855 36.169360 36.138395 36.105963 36.072121
36.036874 36.000286 35.962364 35.923177 35.882734 35.841113 35.798324 35.754449
35.709501 35.663567 35.616662 35.568876 35.520227 35.470808 35.420636 35.369809
35.318343 35.266337 35.213807 35.160852 35.107487 35.053811 34.999837 34.945663
34.891297 34.836838 34.782289 34.727745 34.673208 34.618767 34.564420 34.510252
34.456257 34.402514 34.349013 34.295827 34.242941 34.190423 34.138254 34.086494
34.035121 33.984187 33.933666 33.883605 33.833974 33.784812 33.736086 33.687828
33.640004 33.592637 33.545691 33.499185 33.453078 33.407383 33.362059 33.317112
33.272502 33.228227 33.184247 33.140556 33.097113 33.053907 33.010899 32.968072
32.925388 32.882826 32.840352 32.797939 32.755556
33.133333 33.199511 33.265731 33.332039 33.398472 33.465080 33.531893 33.598966
33.666320 33.734013 33.802061 33.870519 33.939398 34.008754 34.078586 34.148954
34.219847 34.291321 34.363358 34.436013 34.509256 34.583141 34.657626 34.732763
34.808500 34.884883 34.961851 35.039446 35.117595 35.196334 35.275582 35.355368
35.435600 35.516302 35.597373 35.678829 35.760559 35.842576 35.924758 36.007112
36.089509 36.171948 36.254296 36.336545 36.418555 36.500316 36.581683 36.662639
36.743039 36.822862 36.901960 36.980311 37.057767 37.134305 37.209776 37.284159
37.357309 37.429203 37.499701 37.568781 37.636311 37.702270 37.766532 37.829080
37.889795 37.948663 38.005575 38.060519 38.113396 38.164198 38.212834 38.259300
38.303515 38.345477 38.385116 38.422431 38.457363 38.489912 38.520027 38.547711
38.572922 38.595664 38.615901 38.633638 38.648849 38.661536 38.671683 38.679291
38.684349 38.686859 38.686816 38.684223 38.679081 38.671390 38.661162 38.648393
38.633102 38.615286 38.594973 38.572157 38.546874 38.519120 38.488939 38.456327
38.421336 38.383965 38.344276 38.302268 38.258013 38.211513 38.162848 38.112026
38.059135 38.004185 37.947277 37.888421 37.827729 37.765215 37.700998 37.635096
37.567637 37.498641 37.428242 37.356463 37.283445 37.209211 37.133908 37.057558
36.980310 36.902189 36.823344 36.743798 36.663701 36.583072 36.502062 36.420686
36.339090 36.257287 36.175418 36.093490 36.011640 35.929869 35.848308 35.766950
35.685918 35.605202 35.524914 35.445037 35.365676 35.286806 35.208522 35.130793
35.053706 34.977221 34.901415 34.826246 34.751776 34.677960 34.604850 34.532396
34.460639 34.389526 34.319089 34.249271 34.180093 34.111497 34.043494 33.976025
33.909093 33.842635 33.776648 33.711071 33.645888 33.581042 33.516510 33.452235
33.388188 33.324315 33.260581 33.196934 33.133333
33.511111 33.599398 33.687745 33.776203 33.864837 33.953693 34.042840 34.132313
34.222186 34.312486 34.403289 34.494610 34.586527 34.679045 34.772241 34.866109
34.960726 35.056072 35.152223 35.249145 35.346912 35.445477 35.544908 35.645147
35.746256 35.848161 35.950920 36.054445 36.158788 36.263845 36.369661 36.476119
36.583256 36.690942 36.799204 36.907901 37.017051 37.126500 37.236260 37.346163
37.456214 37.566236 37.676225 37.785997 37.895540 38.004663 38.113349 38.221401
38.328797 38.435337 38.540996 38.645572 38.749037 38.851193 38.952006 39.051284
39.148995 39.244948 39.339113 39.431309 39.521506 39.609532 39.695360 39.778829
39.859916 39.938470 40.014473 40.087787 40.158397 40.226179 40.291122 40.353113
40.412149 40.468128 40.521050 40.570827 40.617461 40.660877 40.701079 40.738004
40.771657 40.801988 40.829001 40.852656 40.872959 40.889879 40.903422 40.913568
40.920319 40.923666 40.923610 40.920151 40.913289 40.903033 40.889381 40.872352
40.851943 40.828183 40.801069 40.770639 40.736890 40.699873 40.659583 40.616083
40.569370 40.519520 40.466531 40.410491 40.351402 40.289364 40.224384 40.156575
40.085947 40.012626 39.936627 39.858090 39.777034 39.693610 39.607841 39.519892
39.429789 39.337706 39.243673 39.147873 39.050339 38.951260 38.850670 38.748765
38.645578 38.541308 38.435987 38.329816 38.222823 38.115210 38.006999 37.898389
37.789398 37.680222 37.570870 37.461531 37.352209 37.243083 37.134151 37.025581
36.917362 36.809653 36.702433 36.595849 36.489872 36.384637 36.280105 36.176398
36.073469 35.971426 35.870216 35.769931 35.670511 35.572035 35.474437 35.377781
35.281996 35.187132 35.093114 34.999979 34.907648 34.816145 34.725388 34.635389
34.546066 34.457417 34.369361 34.281885 34.194907 34.108406 34.022301 33.936560
33.851108 33.765901 33.680869 33.595961 33.511111
33.888889 33.999330 34.109842 34.220502 34.331370 34.442533 34.554040 34.665981
34.778396 34.891379 35.004955 35.119223 35.234194 35.349967 35.466540 35.584010
35.702362 35.821692 35.941966 36.063277 36.185577 36.308954 36.433342 36.558824
36.685316 36.812895 36.941458 37.071075 37.201626 37.333172 37.465575 37.598885
37.732949 37.867806 38.003286 38.139420 38.276019 38.413104 38.550473 38.688135
38.825877 38.963695 39.101366 39.238878 39.375996 39.512700 39.648749 39.784116
39.918553 40.052028 40.184292 40.315308 40.444826 40.572807 40.699005 40.823380
40.945690 41.065895 41.183763 41.299256 41.412152 41.522415 41.629836 41.734385
41.835864 41.934249 42.029359 42.121173 42.209527 42.294406 42.375661 42.453283
42.527140 42.597227 42.663430 42.725747 42.784078 42.838427 42.888709 42.934929
42.977017 43.014980 43.048762 43.078368 43.103757 43.124934 43.141868 43.154566
43.163008 43.167197 43.167127 43.162799 43.154218 43.141383 43.124312 43.103001
43.077480 43.047743 43.013835 42.975749 42.933541 42.887206 42.836814 42.782361
42.723931 42.661523 42.595237 42.525074 42.451150 42.373471 42.292171 42.207257
42.118882 42.027058 41.931955 41.833591 41.732150 41.627657 41.520312 41.410144
41.297367 41.182014 41.064312 40.944298 40.822209 40.698083 40.572165 40.444497
40.315326 40.184694 40.052852 39.919839 39.785906 39.651086 39.515632 39.379568
39.243143 39.106374 38.969501 38.832535 38.695706 38.559016 38.422681 38.286695
38.151261 38.016361 37.882186 37.748705 37.616094 37.484311 37.353516 37.223656
37.094875 36.967110 36.840485 36.714930 36.590553 36.467273 36.345180 36.224188
36.104369 35.985630 35.868025 35.751459 35.635968 35.521453 35.407933 35.295309
35.183585 35.072658 34.962519 34.853066 34.744277 34.636051 34.528352 34.421084
34.314198 34.207604 34.101242 33.995027 33.888889
34.266667 34.399314 34.532050 34.664955 34.798127 34.931633 35.065579 35.200019
35.335064 35.470755 35.607204 35.744439 35.882574 36.021619 36.161691 36.302779
36.445000 36.588325 36.732868 36.878580 37.025572 37.173773 37.323287 37.474026
37.626083 37.779350 37.933913 38.089639 38.246607 38.404662 38.563870 38.724057
38.885278 39.047336 39.210275 39.373879 39.538177 39.702936 39.868173 40.033638
40.199335 40.364998 40.530620 40.695923 40.860889 41.025229 41.188915 41.351653
41.513405 41.673872 41.833011 41.990523 42.146359 42.300221 42.452060 42.601582
42.748738 42.893243 43.035048 43.173881 43.309696 43.442233 43.571452 43.697110
43.819171 43.937410 44.051799 44.162130 44.268382 44.370368 44.468073 44.561329
44.650129 44.734323 44.813911 44.888763 44.958881 45.024155 45.084591 45.140098
45.190681 45.236267 45.276864 45.312414 45.342923 45.368349 45.388699 45.403944
45.414088 45.419118 45.419034 45.413838 45.403528 45.388119 45.367606 45.342019
45.311352 45.275647 45.234898 45.189165 45.138438 45.082795 45.022227 44.956828
44.886593 44.811632 44.731944 44.647660 44.558780 44.465457 44.367697 44.265670
44.159392 44.049051 43.934669 43.816457 43.694441 43.568852 43.439723 43.307302
43.171628 43.032965 42.891358 42.747084 42.600192 42.450969 42.299466 42.145980
41.990561 41.833511 41.674877 41.514965 41.353818 41.191738 41.028764 40.865194
40.701058 40.536648 40.371983 40.207345 40.042742 39.878445 39.714449 39.551009
39.388109 39.225987 39.064614 38.904209 38.744731 38.586379 38.429099 38.273070
38.118225 37.964724 37.812487 37.661653 37.512131 37.364039 37.217278 37.071943
36.927928 36.785307 36.643967 36.503962 36.365175 36.227638 36.091232 35.955971
35.821732 35.688512 35.556189 35.424741 35.294048 35.164073 35.034699 34.905874
34.777484 34.649466 34.521712 34.394145 34.266667
34.644444 34.799363 34.954381 35.109608 35.265131 35.421068 35.577493 35.734531
35.892239 36.050749 36.210099 36.370425 36.531747 36.694203 36.857790 37.022648
37.188753 37.356241 37.525068 37.695362 37.867059 38.040280 38.214935 38.391141
38.568781 38.747962 38.928543 39.110620 39.294026 39.478846 39.664887 39.852220
40.040630 40.230171 40.420606 40.611975 40.804016 40.996755 41.189910 41.383491
41.577198 41.771026 41.964660 42.158081 42.350959 42.543264 42.734655 42.925092
43.114228 43.302014 43.488099 43.672427 43.854648 44.034705 44.212249 44.387222
44.559284 44.728378 44.894175 45.056621 45.215403 45.370469 45.521527 45.668530
45.811205 45.949515 46.083206 46.212250 46.336416 46.455684 46.569846 46.678891
46.782635 46.881071 46.974040 47.061542 47.143438 47.219735 47.290315 47.355187
47.414255 47.467528 47.514929 47.556470 47.592090 47.621800 47.645558 47.663370
47.675213 47.681090 47.680994 47.674923 47.662888 47.644884 47.620937 47.591041
47.555236 47.513516 47.465938 47.412494 47.353261 47.288229 47.217496 47.141055
47.059022 46.971394 46.878309 46.779768 46.675933 46.566810 46.452584 46.333268
46.209072 46.080017 45.946336 45.808057 45.665436 45.518512 45.367561 45.212629
45.054013 44.891765 44.726200 44.557376 44.385622 44.210998 44.033847 43.854229
43.672494 43.488703 43.303211 43.116072 42.927642 42.737972 42.547413 42.356006
42.164097 41.971718 41.779202 41.586568 41.394139 41.201919 41.010214 40.819014
40.628607 40.438966 40.250360 40.062748 39.876373 39.691180 39.507392 39.324935
39.144009 38.964528 38.786664 38.610320 38.435643 38.262525 38.091086 37.921209
37.752990 37.586302 37.421218 37.257605 37.095511 36.934798 36.775493 36.617453
36.460684 36.305043 36.150515 35.996957 35.844335 35.692510 35.541428 35.390955
35.241023 35.091501 34.942308 34.793321 34.644444
35.022222 35.199483 35.376864 35.554473 35.732441 35.910860 36.089871 36.269549
36.450042 36.631405 36.813793 36.997239 37.181900 37.367788 37.555061 37.743707
37.933882 38.125549 38.318861 38.513753 38.710373 38.908631 39.108664 39.310354
39.513830 39.718946 39.925816 40.134267 40.344401 40.556014 40.769193 40.983707
41.199627 41.416693 41.634960 41.854141 42.074274 42.295048 42.516481 42.738240
42.960328 43.182391 43.404414 43.626027 43.847199 44.067548 44.287028 44.505247
44.722150 44.937337 45.150745 45.361972 45.570950 45.777279 45.980889 46.181387
46.378702 46.572452 46.762570 46.948690 47.130747 47.308396 47.481579 47.649970
47.813523 47.971936 48.125170 48.272948 48.415244 48.551807 48.682619 48.807457
48.926312 49.038987 49.145482 49.245626 49.339424 49.426731 49.507557 49.581781
49.649415 49.710361 49.764631 49.812150 49.852929 49.886912 49.914109 49.934483
49.948040 49.954762 49.954652 49.947710 49.933934 49.913343 49.885931 49.851736
49.810748 49.763024 49.708553 49.647413 49.579591 49.505186 49.424186 49.336715
49.242762 49.142475 49.035848 48.923054 48.804095 48.679169 48.548285 48.411669
48.269339 48.121549 47.968326 47.809949 47.646459 47.478159 47.305097 47.127604
46.945736 46.759843 46.569991 46.376549 46.179586 45.979488 45.776327 45.570500
45.362078 45.151466 44.938734 44.724288 44.508191 44.290851 44.072320 43.853001
43.632935 43.412514 43.191767 42.971072 42.750444 42.530242 42.310465 42.091453
41.873186 41.655983 41.439805 41.224947 41.011352 40.799288 40.588682 40.379774
40.172474 39.966994 39.763228 39.561360 39.361271 39.163114 38.966757 38.772327
38.579682 38.388918 38.199885 38.012653 37.827064 37.643162 37.460786 37.279952
37.100497 36.922416 36.745542 36.569849 36.395173 36.221463 36.048563 35.876402
35.704828 35.533754 35.363036 35.192569 35.022222
35.400000 35.599689 35.799507 35.999597 36.200072 36.401087 36.602736 36.805184
37.008503 37.212867 37.418326 37.625055 37.833083 38.042586 38.253567 38.466202
38.680466 38.896532 39.114345 39.334075 39.555636 39.779188 40.004616 40.232071
40.461404 40.692752 40.925937 41.161081 41.397972 41.636716 41.877070 42.119121
42.362595 42.607559 42.853710 43.101094 43.349379 43.598592 43.848372 44.098728
44.349273 44.599997 44.850493 45.100732 45.350289 45.599118 45.846782 46.093221
46.337987 46.581011 46.821839 47.060394 47.296223 47.529244 47.759009 47.985436
48.208087 48.426880 48.641395 48.851552 49.056951 49.257522 49.452885 49.642980
49.827454 50.006257 50.179065 50.345839 50.506284 50.660374 50.807844 50.948679
51.082645 51.209737 51.329750 51.442687 51.548373 51.646818 51.737874 51.821553
51.897736 51.966437 52.027560 52.081120 52.127044 52.165344 52.195970 52.218931
52.234197 52.241774 52.241651 52.233829 52.218318 52.195114 52.164247 52.125710
52.079552 52.025763 51.964417 51.895498 51.819104 51.735222 51.643973 51.545345
51.439486 51.326388 51.206228 51.079004 50.944922 50.803988 50.656438 50.502289
50.341807 50.175020 50.002226 49.823464 49.639062 49.449070 49.253845 49.053448
48.848263 48.638361 48.424147 48.205700 47.983447 47.757469 47.528210 47.295753
47.060552 46.822688 46.582622 46.340430 46.096574 45.851121 45.604529 45.356855
45.108546 44.859646 44.610589 44.361402 44.112502 43.863898 43.615984 43.368751
43.122569 42.877409 42.633612 42.391130 42.150277 41.910981 41.673527 41.437825
41.204127 40.972325 40.742639 40.514943 40.289426 40.065948 39.844662 39.625417
39.408335 39.193251 38.980259 38.769184 38.560089 38.352794 38.147331 37.943518
37.741358 37.540668 37.341424 37.143444 36.946681 36.750954 36.556195 36.362228
36.168962 35.976232 35.783927 35.591892 35.400000
35.777778 35.999983 36.222340 36.444985 36.668086 36.891759 37.116182 37.341450
37.567751 37.795156 38.023859 38.253905 38.485492 38.718637 38.953539 39.190185
39.428772 39.669256 39.911828 40.156412 40.403192 40.652058 40.903183 41.156422
41.411934 41.669541 41.929386 42.191253 42.455268 42.721181 42.989099 43.258733
43.530169 43.803087 44.077550 44.353202 44.630084 44.907811 45.186399 45.465434
45.744911 46.024389 46.303842 46.582807 46.861239 47.138656 47.414997 47.689766
47.962888 48.233860 48.502596 48.768589 49.031746 49.291565 49.547950 49.800406
50.048838 50.292767 50.532099 50.766377 50.995515 51.219077 51.436990 51.648844
51.854577 52.053813 52.246502 52.432299 52.611168 52.782801 52.947173 53.104009
53.253299 53.394801 53.528514 53.654232 53.771960 53.881525 53.982937 54.076053
54.160888 54.237324 54.305379 54.364962 54.416088 54.458692 54.492785 54.518325
54.535319 54.543747 54.543611 54.534912 54.517648 54.491840 54.457482 54.414616
54.363232 54.303396 54.235094 54.158418 54.073351 53.980012 53.878386 53.768619
53.650700 53.524806 53.390930 53.249282 53.099865 52.942920 52.778460 52.606764
52.427854 52.242044 52.049371 51.850182 51.644528 51.432790 51.215032 50.991664
50.762764 50.528772 50.289772 50.046230 49.798240 49.546284 49.290461 49.031271
48.768810 48.503587 48.235697 47.965652 47.693539 47.419868 47.144716 46.868586
46.591539 46.314065 46.036209 45.758443 45.480792 45.203706 44.927190 44.651668
44.377120 44.103944 43.832096 43.561941 43.293414 43.026847 42.762152 42.499624
42.239156 41.981008 41.725051 41.471511 41.220239 40.971424 40.724904 40.480832
40.239030 39.999617 39.762405 39.527476 39.294636 39.063934 38.835167 38.608357
38.383295 38.159972 37.938181 37.717884 37.498876 37.281092 37.064333 36.848509
36.633429 36.418981 36.204984 35.991305 35.777778
36.155556 36.400380 36.645365 36.890687 37.136487 37.382957 37.630214 37.878462
38.127793 38.378419 38.630405 38.883970 39.139148 39.396158 39.655007 39.915910
40.178842 40.444014 40.711363 40.981097 41.253115 41.527614 41.804455 42.083823
42.365540 42.649773 42.936308 43.225292 43.516470 43.809970 44.105496 44.403155
44.702611 45.003945 45.306787 45.611191 45.916749 46.223492 46.530978 46.839212
47.147721 47.456485 47.765005 48.073238 48.380663 48.687215 48.992356 49.296005
49.597609 49.897075 50.193845 50.487813 50.778424 51.065565 51.348688 51.627679
51.902002 52.171549 52.435799 52.694653 52.947615 53.194595 53.435127 53.669133
53.896181 54.116207 54.328816 54.533959 54.731277 54.920737 55.102021 55.275109
55.439720 55.595849 55.743252 55.881933 56.011686 56.132523 56.244270 56.346946
56.440409 56.524679 56.599644 56.665324 56.721634 56.768593 56.806140 56.834288
56.853004 56.862293 56.862145 56.852559 56.833549 56.805108 56.767271 56.720027
56.663435 56.597479 56.522245 56.437713 56.343997 56.241077 56.129096 56.008039
55.878079 55.739204 55.591625 55.435338 55.270587 55.097381 54.916003 54.726473
54.529112 54.323957 54.111367 53.891393 53.664434 53.430556 53.190194 52.943429
52.690730 52.432190 52.168308 51.899186 51.625350 51.346909 51.064407 50.777956
50.488114 50.194991 49.899154 49.600706 49.300214 48.997773 48.693942 48.388804
48.082905 47.776311 47.469551 47.162668 46.856172 46.550082 46.244879 45.940559
45.637574 45.335892 45.035931 44.737635 44.441386 44.147100 43.855123 43.565348
43.278079 42.993186 42.710936 42.431175 42.154131 41.879632 41.607864 41.338641
41.072109 40.808066 40.546623 40.287566 40.030968 39.776607 39.524522 39.274485
39.026500 38.780338 38.535972 38.293173 38.051882 37.811877 37.573071 37.335247
37.098292 36.862001 36.626238 36.390808 36.155556
36.533333 36.800881 37.068614 37.336700 37.605340 37.874678 38.144931 38.416217
38.688761 38.962655 39.238132 39.515251 39.794250 40.075156 40.358206 40.643391
40.930948 41.220829 41.513264 41.808167 42.105757 42.405909 42.708829 43.014349
43.322660 43.633550 43.947191 44.263328 44.582112 44.903245 45.226851 45.552590
45.880561 46.210381 46.542121 46.875358 47.210135 47.545988 47.882933 48.220472
48.558591 48.896758 49.234937 49.572566 49.909584 50.245408 50.579954 50.912623
51.243314 51.571417 51.896819 52.218905 52.537554 52.852156 53.162584 53.468241
53.769000 54.064283 54.353969 54.637503 54.914775 55.185260 55.448862 55.705091
55.953865 56.194735 56.427635 56.652158 56.868256 57.075563 57.274050 57.463393
57.643579 57.814326 57.975634 58.127261 58.269219 58.401304 58.523535 58.635744
58.737954 58.830030 58.911997 58.983750 59.045311 59.096606 59.137650 59.168396
59.188854 59.199001 59.198840 59.188374 59.167596 59.136534 59.095176 59.043573
58.981707 58.909655 58.827397 58.735037 58.632553 58.520081 58.397598 58.265274
58.123092 57.971257 57.809758 57.638841 57.458505 57.269035 57.070446 56.863065
56.646922 56.422387 56.189507 55.948697 55.700020 55.443933 55.180518 54.910268
54.633283 54.350093 54.060809 53.765992 53.465763 53.160709 52.850957 52.537110
52.219298 51.898137 51.573752 51.246761 50.917283 50.585934 50.252816 49.918538
49.583184 49.247345 48.911086 48.574974 48.239049 47.903853 47.569397 47.236192
46.904222 46.573960 46.245361 45.918862 45.594388 45.272335 44.952601 44.635539
44.321020 44.009353 43.700386 43.394385 43.091174 42.790975 42.493592 42.199206
41.907603 41.618922 41.332934 41.049738 40.769095 40.491063 40.215396 39.942115
39.670971 39.401946 39.134791 38.869457 38.605695 38.343424 38.082403 37.822522
37.563547 37.305341 37.047686 36.790417 36.533333
36.911111 37.201501 37.492084 37.783073 38.074637 38.367005 38.660323 38.954830
39.250644 39.548014 39.847025 40.147934 40.450789 40.755850 41.063129 41.372885
41.685090 41.999997 42.317537 42.637955 42.961138 43.287319 43.616341 43.948419
44.283351 44.621333 44.962116 45.305873 45.652307 46.001568 46.353309 46.707653
47.064208 47.423064 47.783786 48.146433 48.510524 48.876089 49.242605 49.610069
49.977923 50.346134 50.714108 51.081784 51.448543 51.814297 52.178403 52.540754
52.900692 53.258090 53.612285 53.963137 54.309982 54.652676 54.990561 55.323492
55.650828 55.972428 56.287675 56.596437 56.898127 57.192628 57.479389 57.758309
58.028879 58.291017 58.544258 58.788542 59.023449 59.248939 59.464640 59.670531
59.866287 60.051902 60.227098 60.391883 60.546020 60.689529 60.822212 60.944096
61.055021 61.155016 61.243954 61.321864 61.388651 61.444339 61.488863 61.522240
61.544432 61.555448 61.555276 61.543916 61.521382 61.487665 61.442805 61.386784
61.319671 61.241440 61.152189 61.051891 60.940672 60.818505 60.685551 60.541787
60.387409 60.222401 60.047002 59.861203 59.665287 59.459261 59.243452 59.017883
58.782929 58.538633 58.285417 58.023344 57.752883 57.474116 57.187560 56.893315
56.591938 56.283548 55.968739 55.647642 55.320884 54.988605 54.651454 54.309578
53.963642 53.613791 53.260700 52.904506 52.545885 52.184962 51.822406 51.458325
51.093373 50.727635 50.361743 49.995759 49.630286 49.265358 48.901544 48.538847
48.177801 47.818376 47.461064 47.105804 46.753045 46.402694 46.055155 45.710304
45.368499 45.029586 44.693877 44.361192 44.031795 43.705483 43.382473 43.062541
42.745858 42.432184 42.121643 41.813983 41.509285 41.207285 40.908023 40.611230
40.316904 40.024775 39.734802 39.446716 39.160443 38.875715 38.592427 38.310320
38.029257 37.748992 37.469360 37.190130 36.911111
37.288889 37.602238 37.915807 38.229796 38.544443 38.859922 39.176487 39.494281
39.813573 40.134471 40.457252 40.781989 41.108965 41.438213 41.770015 42.104366
42.441542 42.781496 43.124496 43.470449 43.819612 44.171843 44.527386 44.886048
45.248053 45.613160 45.981569 46.352987 46.727589 47.105031 47.485457 47.868473
48.254191 48.642167 49.032479 49.424635 49.818678 50.214068 50.610816 51.008337
51.406609 51.805007 52.203476 52.601359 52.998569 53.394422 53.788806 54.181016
54.570916 54.957790 55.341487 55.721285 56.097022 56.467981 56.833997 57.194366
57.548925 57.896992 58.238412 58.572534 58.899216 59.217843 59.528292 59.829992
60.122839 60.406311 60.680326 60.944413 61.198513 61.442206 61.675458 61.897898
62.109514 62.309984 62.499313 62.677229 62.843750 62.998649 63.141952 63.273473
63.393246 63.501121 63.597132 63.681166 63.753252 63.813309 63.861360 63.897352
63.921301 63.933181 63.932998 63.920751 63.896437 63.860083 63.811673 63.751262
63.678828 63.594453 63.498108 63.389908 63.269822 63.138000 62.994409 62.839238
62.672461 62.494308 62.304761 62.104097 61.892311 61.669729 61.436362 61.192587
60.938438 60.674341 60.400353 60.116954 59.824224 59.522693 59.212464 58.894115
58.567771 58.234052 57.893103 57.545581 57.191643 56.831979 56.466753 56.096677
55.721917 55.343201 54.960691 54.575118 54.186633 53.795966 53.403250 53.009202
52.613934 52.218143 51.821916 51.425919 51.030211 50.635425 50.241587 49.849290
49.458526 49.069846 48.683205 48.299110 47.917479 47.538772 47.162871 46.790187
46.420571 46.054380 45.691436 45.332045 44.976003 44.623563 44.274498 43.929011
43.586852 43.248178 42.912721 42.580589 42.251504 41.925525 41.602367 41.282044
40.964266 40.649006 40.335972 40.025099 39.716097 39.408865 39.103119 38.798725
38.495408 38.193003 37.891253 37.589961 37.288889
37.666667 38.003107 38.339774 38.676918 39.014740 39.353510 39.693397 40.034685
40.377513 40.722174 41.068770 41.417602 41.768732 42.122463 42.478815 42.838088
43.200258 43.565620 43.934099 44.305981 44.681143 45.059854 45.441940 45.827651
46.216758 46.609490 47.005563 47.405178 47.807998 48.214192 48.623367 49.035659
49.450622 49.868354 50.288355 50.710687 51.134798 51.560712 51.987826 52.416128
52.844969 53.274299 53.703432 54.132281 54.560126 54.986849 55.411704 55.834546
56.254609 56.671729 57.085129 57.494631 57.899458 58.299423 58.693760 59.082281
59.464238 59.839452 60.207203 60.567323 60.919132 61.262479 61.596727 61.921749
62.236959 62.542255 62.837103 63.121429 63.394756 63.657036 63.907848 64.147168
64.374633 64.590240 64.793677 64.984961 65.163829 65.330310 65.484190 65.625505
65.754081 65.869958 65.973002 66.063249 66.140600 66.205087 66.256641 66.295285
66.320979 66.333735 66.333541 66.320396 66.294316 66.255288 66.203354 66.138491
66.060771 65.970161 65.866764 65.750544 65.621636 65.480002 65.325818 65.159048
64.979909 64.788374 64.584708 64.368896 64.141252 63.901781 63.650849 63.388484
63.115108 62.830772 62.535957 62.230740 61.915659 61.590817 61.256808 60.913759
60.562315 60.202627 59.835383 59.460753 59.079464 58.691697 58.298210 57.899190
57.495414 57.087069 56.674943 56.259215 55.840672 55.419480 54.996417 54.571626
54.145867 53.719257 53.292531 52.865772 52.439682 52.014311 51.590319 51.167719
50.747127 50.328518 49.912458 49.498883 49.088308 48.680632 48.276315 47.875220
47.477752 47.083739 46.693533 46.306929 45.924223 45.545183 45.170051 44.798571
44.430930 44.066852 43.706474 43.349501 42.996020 42.645727 42.298659 41.954503
41.613252 41.274589 40.938464 40.604562 40.272789 39.942838 39.614577 39.287707
38.962063 38.637358 38.313396 37.989907 37.666667
38.044444 38.404102 38.764016 39.124421 39.485594 39.847738 40.211150 40.575999
40.942596 41.311072 41.681747 42.054712 42.430292 42.808535 43.189765 43.573983
43.961510 44.352297 44.746655 45.144484 45.546081 45.951291 46.360394 46.773178
47.189899 47.610289 48.034576 48.462434 48.894059 49.329065 49.767614 50.209260
50.654128 51.101713 51.552100 52.004726 52.459634 52.916209 53.374449 53.833688
54.293885 54.754325 55.214927 55.674937 56.134238 56.592040 57.048195 57.501888
57.952945 58.400534 58.844461 59.283891 59.718614 60.147802 60.571241 60.988118
61.398223 61.800769 62.195559 62.581842 62.959438 63.327641 63.686296 64.034750
64.372873 64.700071 65.016244 65.320859 65.613846 65.894734 66.163483 66.419681
66.663317 66.894037 67.111852 67.316465 67.507903 67.685920 67.850557 68.001613