# vtk DataFile Version 3.0
Steady-state temperature (Jacobi)
ASCII
DATASET STRUCTURED_POINTS
DIMENSIONS 181 181 1
ORIGIN 0.0 0.0 0.0
SPACING 0.05 0.05 1.0
POINT_DATA 32761
SCALARS Temperature float 1
LOOKUP_TABLE default
32.000000 32.000000 32.000000 32.000000 32.000000 32.000000 32.000000 32.000000
32.000000 32.000000 32.000000 32.000000 32.000000 32.000000 32.000000 32.000000
32.000000 32.000000 32.000000 32.000000 32.000000 32.000000 32.000000 32.000000
32.000000 32.000000 32.000000 32.000000 32.000000 32.000000 32.000000 32.000000
32.000000 32.000000 32.000000 32.000000 32.000000 32.000000 32.000000 32.000000
32.000000 32.000000 32.000000 32.000000 32.000000 32.000000 32.000000 32.000000
32.000000 32.000000 32.000000 32.000000 32.000000 32.000000 32.000000 32.000000
32.000000 32.000000 32.000000 32.000000 32.000000 32.000000 32.000000 32.000000
32.000000 32.000000 32.000000 32.000000 32.000000 32.000000 32.000000 32.000000
32.000000 32.000000 32.000000 32.000000 32.000000 32.000000 32.000000 32.000000
32.000000 32.000000 32.000000 32.000000 32.000000 32.000000 32.000000 32.000000
32.000000 32.000000 32.000000 32.000000 32.000000 32.000000 32.000000 32.000000
32.000000 32.000000 32.000000 32.000000 32.000000 32.000000 32.000000 32.000000
32.000000 32.000000 32.000000 32.000000 32.000000 32.000000 32.000000 32.000000
32.000000 32.000000 32.000000 32.000000 32.000000 32.000000 32.000000 32.000000
32.000000 32.000000 32.000000 32.000000 32.000000 32.000000 32.000000 32.000000
32.000000 32.000000 32.000000 32.000000 32.000000 32.000000 32.000000 32.000000
32.000000 32.000000 32.000000 32.000000 32.000000 32.000000 32.000000 32.000000
32.000000 32.000000 32.000000 32.000000 32.000000 32.000000 32.000000 32.000000
32.000000 32.000000 32.000000 32.000000 32.000000 32.000000 32.000000 32.000000
32.000000 32.000000 32.000000 32.000000 32.000000 32.000000 32.000000 32.000000
32.000000 32.000000 32.000000 32.000000 32.000000 32.000000 32.000000 32.000000
32.000000 32.000000 32.000000 32.000000 32.000000
32.377778 32.381304 32.384860 32.388481 32.392191 32.396031 32.400018 32.404197
32.408580 32.413215 32.418108 32.423310 32.428820 32.434693 32.440920 32.447559
32.454594 32.462084 32.470006 32.478421 32.487298 32.496700 32.506586 32.517021
32.527957 32.539459 32.551470 32.564055 32.577151 32.590821 32.604994 32.619733
32.634959 32.650735 32.666973 32.683735 32.700928 32.718611 32.736685 32.755207
32.774072 32.793335 32.812888 32.832782 32.852906 32.873309 32.893875 32.914653
32.935525 32.956538 32.977571 32.998670 33.019716 33.040752 33.061658 33.082478
33.103094 33.123548 33.143726 33.163667 33.183261 33.202548 33.221422 33.239921
33.257945 33.275532 33.292587 33.309147 33.325124 33.340554 33.355355 33.369562
33.383101 33.396005 33.408207 33.419738 33.430539 33.440639 33.449985 33.458604
33.466452 33.473551 33.479866 33.485414 33.490168 33.494141 33.497315 33.499698
33.501278 33.502061 33.502042 33.501222 33.499603 33.497182 33.493970 33.489957
33.485163 33.479574 33.473217 33.466075 33.458182 33.449518 33.440123 33.429975
33.419123 33.407539 33.395282 33.382321 33.368723 33.354455 33.339590 33.324095
33.308050 33.291419 33.274291 33.256628 33.238526 33.219946 33.200989 33.181616
33.161934 33.141902 33.121632 33.101083 33.080370 33.059451 33.038444 33.017306
32.996158 32.974954 32.953815 32.932697 32.911719 32.890835 32.870163 32.849655
32.829428 32.809432 32.789779 32.770419 32.751460 32.732848 32.714688 32.696924
32.679655 32.662823 32.646522 32.630691 32.615418 32.600641 32.586440 32.572752
32.559651 32.547071 32.535079 32.523610 32.512722 32.502351 32.492545 32.483241
32.474481 32.466201 32.458436 32.451122 32.444287 32.437869 32.431889 32.426285
32.421072 32.416191 32.411648 32.407388 32.403411 32.399665 32.396141 32.392794
32.389607 32.386539 32.383568 32.380657 32.377778
32.755556 32.762630 32.769770 32.777029 32.784483 32.792174 32.800187 32.808553
32.817364 32.826637 32.836474 32.846878 32.857956 32.869698 32.882217 32.895488
32.909628 32.924599 32.940520 32.957338 32.975176 32.993964 33.013828 33.034682
33.056652 33.079637 33.103765 33.128916 33.155218 33.182538 33.211001 33.240458
33.271033 33.302563 33.335168 33.368671 33.403190 33.438535 33.474820 33.511842
33.549713 33.588219 33.627468 33.667236 33.707629 33.748414 33.789693 33.831230
33.873121 33.915125 33.957338 33.999516 34.041751 34.083802 34.125756 34.167376
34.208745 34.249632 34.290119 34.329980 34.369295 34.407847 34.445715 34.482691
34.518852 34.554003 34.588219 34.621316 34.653367 34.684204 34.713895 34.742287
34.769446 34.795232 34.819708 34.842750 34.864415 34.884595 34.903341 34.920563
34.936303 34.950487 34.963151 34.974236 34.983770 34.991709 34.998074 35.002835
35.006005 35.007569 35.007531 35.005892 35.002646 34.997809 34.991366 34.983349
34.973734 34.962568 34.949819 34.935549 34.919719 34.902406 34.883564 34.863286
34.841519 34.818372 34.793787 34.767887 34.740610 34.712096 34.682278 34.651310
34.619122 34.585883 34.551521 34.516219 34.479901 34.442763 34.404729 34.366006
34.326514 34.286473 34.245800 34.204724 34.163160 34.121343 34.079188 34.036934
33.994492 33.952104 33.909682 33.867465 33.825363 33.783614 33.742124 33.701129
33.660529 33.620557 33.581109 33.542409 33.504349 33.467147 33.430690 33.395183
33.360512 33.326870 33.294139 33.262500 33.231830 33.202298 33.173778 33.146424
33.120109 33.094971 33.070881 33.047964 33.026088 33.005364 32.985660 32.967069
32.949463 32.932918 32.917308 32.902693 32.888950 32.876125 32.864098 32.852898
32.842411 32.832653 32.823514 32.814995 32.806993 32.799497 32.792409 32.785705
32.779297 32.773148 32.767177 32.761336 32.755556
33.133333 33.144006 33.154768 33.165726 33.176953 33.188568 33.200627 33.213263
33.226513 33.240521 33.255305 33.271020 33.287661 33.305394 33.324193 33.344231
33.365460 33.388059 33.411957 33.437340 33.464112 33.492463 33.522272 33.553734
33.586703 33.621375 33.657580 33.695513 33.734982 33.776180 33.818892 33.863307
33.909189 33.956724 34.005653 34.056158 34.107961 34.161238 34.215691 34.271493
34.328327 34.386361 34.445265 34.505197 34.565817 34.627278 34.689230 34.751818
34.814687 34.877977 34.941328 35.004876 35.068260 35.131611 35.194572 35.257269
35.319351 35.380940 35.441694 35.501734 35.560726 35.618790 35.675607 35.731294
35.785547 35.838481 35.889811 35.939648 35.987728 36.034158 36.078695 36.121440
36.162175 36.200995 36.237703 36.272388 36.304878 36.335255 36.363367 36.389287
36.412890 36.434238 36.453227 36.469909 36.484205 36.496152 36.505695 36.512861
36.517614 36.519968 36.519911 36.517444 36.512578 36.505298 36.495639 36.483573
36.469157 36.452352 36.433237 36.411759 36.388023 36.361965 36.333710 36.303187
36.270544 36.235700 36.198828 36.159838 36.118927 36.075997 36.031271 35.984643
35.936359 35.886309 35.834759 35.781598 35.727110 35.671182 35.614115 35.555794
35.496537 35.436226 35.375194 35.313320 35.250948 35.187955 35.124693 35.061035
34.997342 34.933480 34.869814 34.806206 34.743020 34.680113 34.617845 34.556070
34.495140 34.434902 34.375699 34.317375 34.260258 34.204186 34.149475 34.095955
34.043926 33.993212 33.944095 33.896395 33.850373 33.805844 33.763048 33.721798
33.682312 33.644398 33.608251 33.573680 33.540856 33.509587 33.480020 33.451964
33.425544 33.400569 33.377142 33.355075 33.334447 33.315076 33.297019 33.280098
33.264348 33.249601 33.235869 33.222991 33.210961 33.199627 33.188962 33.178828
33.169176 33.159882 33.150880 33.142058 33.133333
33.511111 33.525448 33.539915 33.554622 33.569721 33.585296 33.601518 33.618447
33.636271 33.655025 33.674909 33.695933 33.718311 33.742022 33.767294 33.794077
33.822607 33.852805 33.884913 33.918822 33.954781 33.992649 34.032679 34.074697
34.118961 34.165262 34.213860 34.264516 34.317485 34.372499 34.429812 34.489122
34.550680 34.614156 34.679794 34.747237 34.816723 34.887868 34.960902 35.035419
35.111640 35.189138 35.268128 35.348162 35.429447 35.511522 35.594586 35.678166
35.762453 35.846969 35.931896 36.016753 36.101717 36.186308 36.270698 36.354412
36.437616 36.519845 36.601263 36.681417 36.760466 36.837976 36.914103 36.988433
37.061117 37.131766 37.200527 37.267035 37.331436 37.393390 37.453038 37.510071
37.564621 37.616410 37.665564 37.711833 37.755334 37.795851 37.833487 37.868058
37.899655 37.928125 37.953544 37.975791 37.994926 38.010858 38.023632 38.033186
38.039548 38.042687 38.042612 38.039323 38.032809 38.023102 38.010174 37.994085
37.974789 37.952379 37.926792 37.898149 37.866374 37.831620 37.793794 37.753081
37.709376 37.662896 37.613524 37.561508 37.506722 37.449445 37.389543 37.327325
37.262652 37.195861 37.126807 37.055856 36.982858 36.908206 36.831746 36.753893
36.674491 36.593976 36.512188 36.429579 36.345988 36.261879 36.177088 36.092089
36.006711 35.921437 35.836089 35.751151 35.666440 35.582436 35.498950 35.416457
35.334758 35.254317 35.174929 35.097043 35.020446 34.945570 34.872192 34.800724
34.730936 34.663216 34.597327 34.533632 34.471888 34.412428 34.355004 34.299922
34.246930 34.196302 34.147783 34.101617 34.057548 34.015789 33.976083 33.938612
33.903121 33.869761 33.838280 33.808798 33.781069 33.755182 33.730897 33.708276
33.687086 33.667360 33.648877 33.631640 33.615442 33.600258 33.585895 33.572304
33.559306 33.546827 33.534708 33.522849 33.511111
33.888889 33.906988 33.925238 33.943815 33.962843 33.982522 34.002945 34.024336
34.046755 34.070445 34.095435 34.121986 34.150090 34.180024 34.211745 34.245544
34.281339 34.319432 34.359703 34.402463 34.447553 34.495290 34.545475 34.598429
34.653914 34.712252 34.773166 34.836975 34.903364 34.972651 35.044480 35.119166
35.196314 35.276234 35.358496 35.443399 35.530482 35.620036 35.711566 35.805354
35.900879 35.998411 36.097403 36.198118 36.299987 36.403261 36.507356 36.612515
36.718141 36.824466 36.930890 37.037636 37.144101 37.250502 37.356240 37.461526
37.565770 37.669178 37.771175 37.871960 37.970980 38.068430 38.163778 38.257217
38.348242 38.437041 38.523142 38.606726 38.687356 38.765206 38.839875 38.911532
38.979810 39.044870 39.106385 39.164503 39.218938 39.269825 39.316915 39.360330
39.399860 39.435609 39.467408 39.495341 39.519276 39.539280 39.555257 39.567253
39.575211 39.579152 39.579058 39.574929 39.566783 39.554596 39.538426 39.518226
39.494091 39.465953 39.433945 39.397979 39.358228 39.314583 39.267256 39.216124
39.161436 39.103054 39.041266 38.975922 38.907350 38.835388 38.760402 38.682222
38.601252 38.517314 38.430848 38.341670 38.250254 38.156412 38.060648 37.962770
37.863310 37.762072 37.659612 37.555730 37.451002 37.345223 37.238983 37.132072
37.025091 36.917824 36.810875 36.704020 36.597865 36.492177 36.387555 36.283758
36.181373 36.080150 35.980660 35.882643 35.786651 35.692412 35.600454 35.510496
35.423038 35.337788 35.255216 35.175022 35.097643 35.022770 34.950805 34.881434
34.815020 34.751244 34.690434 34.632266 34.577029 34.524399 34.474624 34.427383
34.382885 34.340811 34.301331 34.264133 34.229347 34.196669 34.166191 34.137620
34.111012 34.086084 34.062857 34.041063 34.020688 34.001481 33.983395 33.966197
33.949810 33.934021 33.918722 33.903723 33.888889
34.266667 34.288638 34.310806 34.333337 34.356459 34.380301 34.405120 34.431007
34.458246 34.486889 34.517240 34.549313 34.583432 34.619566 34.658058 34.698833
34.742247 34.788182 34.837005 34.888550 34.943193 35.000722 35.061518 35.125323
35.192519 35.262800 35.336551 35.413416 35.493779 35.577235 35.664166 35.754121
35.847474 35.943731 36.043255 36.145513 36.250857 36.358713 36.469425 36.582380
36.697910 36.815373 36.935086 37.056379 37.179558 37.303931 37.429791 37.556429
37.684126 37.812163 37.940812 38.069347 38.198031 38.326142 38.453932 38.580689
38.706658 38.831140 38.954376 39.075688 39.195309 39.312589 39.427758 39.540194
39.650123 39.756960 39.860925 39.961471 40.058813 40.152446 40.242577 40.328746
40.411149 40.489373 40.563602 40.633469 40.699145 40.760309 40.817116 40.869292
40.916973 40.959932 40.998283 41.031846 41.060712 41.084746 41.104014 41.118425
41.128022 41.132757 41.132645 41.127684 41.117862 41.103222 41.083723 41.059454
41.030348 40.996540 40.957937 40.914720 40.866773 40.814322 40.757231 40.695773
40.629793 40.559610 40.485054 40.406490 40.323734 40.237199 40.146688 40.052660
39.954909 39.853939 39.749536 39.642245 39.531847 39.418927 39.303259 39.185465
39.065315 38.943462 38.819670 38.694619 38.568070 38.440721 38.312329 38.183607
38.054304 37.925143 37.795864 37.667193 37.538860 37.411588 37.285096 37.160097
37.036298 36.914396 36.794087 36.676044 36.559952 36.446459 36.335234 36.226895
36.121100 36.018430 35.918533 35.821951 35.728322 35.638146 35.551052 35.467498
35.387106 35.310288 35.236660 35.166590 35.099691 35.036283 34.975980 34.919054
34.865122 34.814410 34.766538 34.721686 34.679484 34.640064 34.603068 34.568582
34.536260 34.506149 34.477915 34.451564 34.426781 34.403531 34.381521 34.360676
34.340728 34.321563 34.302941 34.284713 34.266667
34.644444 34.670433 34.696635 34.723300 34.750600 34.778819 34.808089 34.838724
34.870812 34.904695 34.940413 34.978334 35.018449 35.061148 35.106372 35.154528
35.205506 35.259728 35.317029 35.377844 35.441954 35.509801 35.581111 35.656331
35.735131 35.817961 35.904434 35.994999 36.089213 36.187522 36.289429 36.395372
36.504801 36.618146 36.734806 36.855198 36.978677 37.105644 37.235411 37.368365
37.503777 37.642022 37.782333 37.925072 38.069441 38.215788 38.363294 38.512290
38.661941 38.812567 38.963323 39.114516 39.265302 39.415975 39.565699 39.714759
39.862330 40.008693 40.153044 40.295655 40.435751 40.573598 40.708456 40.840585
40.969284 41.094810 41.216503 41.334614 41.448532 41.558501 41.663959 41.765141
41.861538 41.953372 42.040190 42.122199 42.198999 42.270781 42.337199 42.398423
42.454163 42.504565 42.549392 42.588766 42.622503 42.650696 42.673213 42.690118
42.701333 42.706888 42.706757 42.700940 42.689462 42.672291 42.649504 42.621038
42.587022 42.547362 42.502242 42.451539 42.395489 42.333945 42.267196 42.195072
42.117918 42.035541 41.948341 41.856110 41.759302 41.657693 41.551791 41.441363
41.326968 41.208363 41.086158 40.960104 40.830858 40.698164 40.562724 40.424278
40.283566 40.140323 39.995324 39.848298 39.700049 39.550299 39.399874 39.248487
39.096980 38.945057 38.793566 38.642201 38.491810 38.342074 38.193832 38.046754
37.901663 37.758215 37.617210 37.478289 37.342224 37.208641 37.078279 36.950748
36.826747 36.705874 36.588783 36.475060 36.365312 36.259113 36.157021 36.058600
35.964357 35.873848 35.787526 35.704943 35.626499 35.551742 35.481018 35.413877
35.350608 35.290766 35.234586 35.181631 35.132081 35.085510 35.042045 35.001274
34.963272 34.927644 34.894416 34.863212 34.834011 34.806459 34.780489 34.755774
34.732201 34.709474 34.687437 34.665825 34.644444
35.022222 35.052380 35.082804 35.113716 35.145423 35.178100 35.212091 35.247523
35.284772 35.323914 35.365354 35.409114 35.455628 35.504858 35.557261 35.612743
35.671777 35.734210 35.800530 35.870522 35.944686 36.022742 36.105200 36.191715
36.282800 36.378048 36.477970 36.582096 36.690935 36.803951 36.921649 37.043432
37.169793 37.300077 37.434765 37.573144 37.715683 37.861615 38.011393 38.164202
38.320477 38.479362 38.641273 38.805317 38.971892 39.140076 39.310250 39.481469
39.654098 39.827178 40.001059 40.174775 40.348665 40.521766 40.694405 40.865630
41.035760 41.203862 41.370247 41.534013 41.695462 41.853727 42.009108 42.160778
42.309030 42.453087 42.593237 42.728755 42.859921 42.986066 43.107463 43.223502
43.334444 43.439739 43.539634 43.633643 43.721993 43.804261 43.880653 43.950808
44.014908 44.072653 44.124197 44.169301 44.208089 44.240381 44.266268 44.285631
44.298523 44.304886 44.304736 44.298075 44.284882 44.265217 44.239023 44.206418
44.167312 44.121882 44.070004 44.011916 43.947462 43.876942 43.800172 43.717513
43.628758 43.534330 43.433999 43.328252 43.216841 43.100314 42.978411 42.851740
42.720030 42.583948 42.443214 42.298552 42.149675 41.997361 41.841316 41.682366
41.520213 41.355725 41.188599 41.019740 40.848837 40.676823 40.503382 40.329467
40.154752 39.980203 39.805482 39.631559 39.458084 39.286021 39.115006 38.945988
38.778589 38.613736 38.451032 38.291377 38.134356 37.980832 37.830374 37.683802
37.540667 37.401742 37.266563 37.135852 37.009128 36.887058 36.769151 36.656013
36.547143 36.443089 36.343342 36.248386 36.157710 36.071736 35.989951 35.912713
35.839514 35.770649 35.705614 35.644646 35.587248 35.533596 35.483209 35.436202
35.392111 35.350994 35.312407 35.276352 35.242411 35.210531 35.180323 35.151680
35.124246 35.097866 35.072216 35.047097 35.022222
35.400000 35.434519 35.469315 35.504711 35.540934 35.578352 35.617137 35.657695
35.700143 35.744922 35.792090 35.842120 35.895006 35.951250 36.010780 36.074121
36.141136 36.212367 36.287609 36.367419 36.451521 36.540483 36.633956 36.732516
36.835741 36.944209 37.057426 37.175967 37.299268 37.427897 37.561219 37.699794
37.842918 37.991137 38.143684 38.301087 38.462518 38.628489 38.798113 38.971882
39.148858 39.329515 39.512866 39.699366 39.887992 40.079176 40.271866 40.466476
40.661932 40.858631 41.055486 41.252879 41.449723 41.646385 41.841786 42.036283
42.228813 42.419724 42.607983 42.793930 42.976567 43.156228 43.331959 43.504091
43.671720 43.835171 43.993598 44.147320 44.295552 44.438604 44.575760 44.707317
44.832626 44.951972 45.064776 45.171303 45.271045 45.364247 45.450470 45.529934
45.602268 45.667663 45.725819 45.776892 45.820649 45.857211 45.886411 45.908333
45.922875 45.930079 45.929912 45.922372 45.907493 45.885232 45.855686 45.818774
45.774659 45.723221 45.664691 45.598910 45.526178 45.446305 45.359658 45.266017
45.165820 45.058821 44.945528 44.825674 44.699837 44.567733 44.430008 44.286365
44.137521 43.983166 43.824081 43.659951 43.491620 43.318763 43.142284 42.961854
42.778426 42.591667 42.402576 42.210812 42.017412 41.822029 41.625727 41.428149
41.230378 41.032048 40.834249 40.636602 40.440196 40.244636 40.051002 39.858880
39.669330 39.481920 39.297679 39.116157 38.938345 38.763773 38.593388 38.426698
38.264601 38.106585 37.953492 37.804793 37.661268 37.522373 37.388823 37.260060
37.136734 37.018276 36.905267 36.797131 36.694379 36.596432 36.503729 36.415693
36.332693 36.254156 36.180379 36.110801 36.045649 35.984374 35.927136 35.873402
35.823267 35.776221 35.732293 35.690998 35.652304 35.615755 35.581261 35.548399
35.517021 35.486741 35.457359 35.428529 35.400000
35.777778 35.816848 35.856254 35.896279 35.937309 35.979567 36.023487 36.069232
36.117275 36.167715 36.221062 36.277349 36.337118 36.400329 36.467555 36.538682
36.614305 36.694236 36.779087 36.868594 36.963383 37.063109 37.168408 37.278855
37.395091 37.516609 37.644050 37.776827 37.915576 38.059632 38.209620 38.364798
38.525777 38.691743 38.863289 39.039528 39.221036 39.406859 39.597552 39.792100
39.991033 40.193283 40.399358 40.608140 40.820117 41.034131 41.250648 41.468482
41.688076 41.908228 42.129361 42.350265 42.571348 42.791404 43.010826 43.228422
43.444576 43.658121 43.869432 44.077378 44.282327 44.483195 44.680344 44.872743
45.060749 45.243394 45.421028 45.592750 45.758904 45.918660 46.072352 46.219225
46.359601 46.492802 46.619133 46.737994 46.849667 46.953632 47.050146 47.138764
47.219714 47.292629 47.357700 47.414635 47.463588 47.504341 47.537006 47.561439
47.577706 47.585736 47.585551 47.577150 47.560509 47.535699 47.502652 47.461511
47.412161 47.354821 47.289335 47.215993 47.134603 47.045530 46.948546 46.844095
46.731917 46.612533 46.485659 46.351894 46.210933 46.063451 45.909128 45.748717
45.581884 45.409458 45.231095 45.047696 44.858909 44.665706 44.467727 44.266005
44.060177 43.851329 43.639094 43.424603 43.207483 42.988902 42.768479 42.547407
42.325294 42.103350 41.881168 41.659964 41.439315 41.220428 41.002863 40.787809
40.574806 40.365015 40.157953 39.954745 39.754884 39.559449 39.367911 39.181294
38.999047 38.822135 38.649983 38.483493 38.322070 38.166545 38.016307 37.872113
37.733339 37.600667 37.473461 37.352326 37.236621 37.126870 37.022433 36.923755
36.830197 36.742126 36.658911 36.580840 36.507296 36.438491 36.373823 36.313430
36.256732 36.203793 36.154060 36.107528 36.063674 36.022425 35.983292 35.946139
35.910516 35.876225 35.842860 35.810164 35.777778
36.155556 36.199413 36.243613 36.288556 36.334526 36.381973 36.431115 36.482453
36.536134 36.592702 36.652232 36.715306 36.781923 36.852699 36.927552 37.007126
37.091259 37.180617 37.274953 37.374951 37.480279 37.591632 37.708589 37.831853
37.960916 38.096480 38.237949 38.386023 38.540017 38.700622 38.867067 39.040030
39.218655 39.403604 39.593940 39.790304 39.991683 40.198694 40.410254 40.626954
40.847647 41.072899 41.301504 41.534002 41.769142 42.007436 42.247596 42.490109
42.733661 42.978717 43.223949 43.469801 43.714944 43.959805 44.203065 44.445138
44.684727 44.922237 45.156405 45.387627 45.614687 45.837976 46.056331 46.270141
46.478308 46.681213 46.877832 47.068540 47.252390 47.429750 47.599753 47.762757
47.917978 48.065760 48.205406 48.337236 48.460641 48.575918 48.682540 48.780776
48.870182 48.950990 49.022843 49.085931 49.139977 49.185129 49.221188 49.248256
49.266213 49.275110 49.274907 49.265603 49.247236 49.219755 49.183277 49.137700
49.083219 49.019687 48.947379 48.866101 48.776212 48.677478 48.570340 48.454529
48.330571 48.198165 48.057924 47.909522 47.753658 47.589986 47.419290 47.241210
47.056614 46.865132 46.667712 46.463977 46.254954 46.040259 45.820991 45.596763
45.368738 45.136523 44.901340 44.662790 44.422139 44.178983 43.934623 43.688644
43.442371 43.195374 42.948992 42.702778 42.458067 42.214396 41.973085 41.733649
41.497383 41.263776 41.034089 40.807785 40.586076 40.368401 40.155917 39.948035
39.745851 39.548749 39.357755 39.172232 38.993128 38.819787 38.653078 38.492326
38.338318 38.190364 38.049169 37.914032 37.785570 37.663080 37.547091 37.436900
37.332949 37.234539 37.142029 37.054730 36.972913 36.895906 36.823899 36.756240
36.693037 36.633664 36.578151 36.525902 36.476873 36.430504 36.386677 36.344874
36.304906 36.266301 36.228805 36.191995 36.155556
36.533333 36.582204 36.631484 36.681518 36.732774 36.785528 36.840304 36.897304
36.957100 37.019819 37.086077 37.155919 37.230000 37.308279 37.391446 37.479373
37.572776 37.671435 37.776089 37.886427 38.003200 38.126004 38.255599 38.391486
38.534429 38.683830 38.840453 39.003604 39.174038 39.350966 39.535130 39.725648
39.923245 40.126947 40.337459 40.553720 40.776409 41.004384 41.238298 41.476934
41.720915 41.968957 42.221653 42.477662 42.737548 42.999923 43.265320 43.532319
43.801425 44.071195 44.342111 44.612721 44.883488 45.152961 45.421590 45.687942
45.952453 46.213723 46.472178 46.726464 46.976999 47.222486 47.463341 47.698330
47.927866 48.150793 48.367518 48.576967 48.779543 48.974260 49.161509 49.340397
49.511303 49.673426 49.827127 49.971699 50.107481 50.233857 50.351136 50.458798
50.557114 50.645654 50.724649 50.793758 50.853167 50.902619 50.942252 50.971895
50.991631 51.001375 51.001154 50.990968 50.970787 50.940694 50.900607 50.850691
50.790811 50.721219 50.641727 50.552678 50.453836 50.345632 50.227791 50.100834
49.964450 49.819252 49.664902 49.502105 49.330498 49.150883 48.962878 48.767378
48.563989 48.353696 48.136098 47.912268 47.681797 47.445844 47.203995 46.957484
46.705895 46.450529 46.190966 45.928562 45.662893 45.395362 45.125532 44.854841
44.582840 44.310986 44.038813 43.767783 43.497413 43.229155 42.962501 42.698884
42.437770 42.180556 41.926681 41.677495 41.432409 41.192715 40.957795 40.728877
40.505312 40.288255 40.077029 39.872710 39.674596 39.483677 39.299230 39.122156
38.951712 38.788710 38.632392 38.483476 38.341197 38.206177 38.077647 37.956135
37.840875 37.732299 37.629651 37.533269 37.442409 37.357319 37.277275 37.202434
37.132099 37.066339 37.004488 36.946531 36.891837 36.840312 36.791367 36.744830
36.700156 36.657104 36.615178 36.574067 36.533333
36.911111 36.965272 37.019845 37.075310 37.132007 37.190478 37.250985 37.314127
37.380086 37.449509 37.522493 37.599730 37.681228 37.767717 37.859112 37.956175
38.058724 38.167548 38.282366 38.403985 38.532023 38.667300 38.809331 38.958943
39.115545 39.279965 39.451507 39.630994 39.817624 40.012208 40.213843 40.423322
40.639640 40.863569 41.094008 41.331701 41.575456 41.825988 42.082019 42.344231
42.611269 42.883782 43.160347 43.441579 43.725997 44.014183 44.304611 44.597833
44.892291 45.188508 45.484908 45.781992 46.078180 46.373953 46.667744 46.960019
47.249238 47.535856 47.818377 48.097247 48.371026 48.640155 48.903264 49.160790
49.411442 49.655655 49.892223 50.121580 50.342613 50.555750 50.759975 50.955705
51.142028 51.319345 51.486844 51.644904 51.792818 51.930936 52.058651 52.176278
52.283308 52.380017 52.465991 52.541460 52.606103 52.660097 52.703216 52.735579
52.757050 52.767689 52.767451 52.756334 52.734383 52.701536 52.657925 52.603432
52.538279 52.462289 52.375780 52.278520 52.170923 52.052710 51.924389 51.785643
51.637078 51.478341 51.310140 51.132095 50.945015 50.748498 50.543456 50.329471
50.107558 49.877289 49.639776 49.394585 49.142922 48.884352 48.620167 48.349929
48.075010 47.794970 47.511250 47.223405 46.932932 46.639380 46.344289 46.047198
45.749675 45.451242 45.153484 44.855902 44.560078 44.265491 43.973707 43.684175
43.398431 43.115896 42.838059 42.564308 42.296078 42.032723 41.775610 41.524060
41.279365 41.040812 40.809611 40.585018 40.368152 40.158245 39.956318 39.761582
39.574959 39.395641 39.224450 39.060565 38.904706 38.756043 38.615194 38.481328
38.354961 38.235265 38.122655 38.016316 37.916560 37.822591 37.734623 37.651883
37.574491 37.501703 37.433546 37.369314 37.308943 37.251768 37.197643 37.145947
37.096454 37.048598 37.002072 36.956369 36.911111
37.288889 37.348600 37.408796 37.469887 37.532427 37.596747 37.663463 37.732822
37.805496 37.881643 37.961988 38.046591 38.136222 38.230845 38.331268 38.437350
38.549931 38.668767 38.794719 38.927435 39.067795 39.215336 39.370946 39.534050
39.705541 39.884731 40.072507 40.268069 40.472293 40.684266 40.904848 41.133017
41.369610 41.613496 41.865486 42.124347 42.390857 42.663687 42.943580 43.229119
43.521009 43.817754 44.120021 44.426245 44.737056 45.050832 45.368167 45.687398
46.009086 46.331539 46.655291 46.978638 47.302090 47.623948 47.944704 48.262682
48.578357 48.890095 49.198362 49.501575 49.800198 50.092717 50.379591 50.659389
50.932569 51.197790 51.455510 51.704486 51.945175 52.176438 52.398724 52.611004
52.813714 53.005936 53.188089 53.359363 53.520151 53.669755 53.808534 53.935896
54.052161 54.156841 54.250207 54.331874 54.402060 54.460478 54.507287 54.542297
54.565605 54.577115 54.576860 54.564838 54.541015 54.505485 54.458150 54.399196
54.328464 54.246237 54.152297 54.047027 53.930153 53.802162 53.662732 53.512454
53.350966 53.178966 52.996060 52.803055 52.599530 52.386405 52.163241 51.931066
51.689431 51.439473 51.180737 50.914464 50.640196 50.359276 50.071243 49.777532
49.477682 49.173209 48.863651 48.550593 48.233569 47.914217 47.592062 47.268785
46.943897 46.619099 46.293885 45.969965 45.646807 45.326110 45.007314 44.692094
44.379856 44.072234 43.768598 43.470527 43.177356 42.890593 42.609538 42.335621
42.068102 41.808328 41.555521 41.310933 41.073757 40.845142 40.624253 40.412134
40.207927 40.012568 39.825181 39.646592 39.475913 39.313858 39.159536 39.013548
38.875003 38.744395 38.620840 38.504721 38.395171 38.292467 38.195761 38.105228
38.020049 37.940295 37.865184 37.794692 37.728074 37.665213 37.605415 37.548470
37.493739 37.440928 37.389456 37.338948 37.288889
37.666667 37.732241 37.798299 37.865405 37.933960 38.004596 38.077628 38.153752
38.233189 38.316694 38.404389 38.497078 38.594782 38.698349 38.807691 38.923693
39.046157 39.175995 39.312896 39.457794 39.610260 39.771241 39.940188 40.118056
40.304174 40.499496 40.703229 40.916318 41.137849 41.368751 41.607990 41.856473
42.113050 42.378596 42.651851 42.933655 43.222641 43.519612 43.823098 44.133864
44.450349 44.773274 45.100997 45.434199 45.771167 46.112542 46.456559 46.803817
47.152516 47.503220 47.854106 48.205712 48.556209 48.906112 49.253609 49.599198
49.941098 50.279796 50.613565 50.942884 51.266092 51.583669 51.894035 52.197670
52.493089 52.780773 53.059341 53.329276 53.589307 53.839914 54.079944 54.309867
54.528649 54.736747 54.933246 55.118580 55.291953 55.453769 55.603346 55.741052
55.866316 55.979459 56.080021 56.168266 56.243842 56.306953 56.357348 56.395166
56.420258 56.432693 56.432421 56.419440 56.393800 56.355427 56.304471 56.240788
56.164630 56.075788 55.974614 55.860841 55.734926 55.596549 55.446277 55.283741
55.109621 54.923511 54.726207 54.517272 54.297619 54.066792 53.825824 53.574242
53.313198 53.042214 52.762558 52.473748 52.177165 51.872328 51.560722 51.241868
50.917347 50.586680 50.251529 49.911417 49.568073 49.221012 48.872018 48.520596
48.168561 47.815402 47.462952 47.110677 46.760406 46.411577 46.066001 45.723080
45.384588 45.049890 44.720707 44.396363 44.078514 43.766440 43.461718 43.163586
42.873532 42.590753 42.316637 42.050346 41.793160 41.544207 41.304657 41.073609
40.852118 40.639258 40.435967 40.241302 40.056083 39.879357 39.711822 39.552523
39.402041 39.259423 39.125133 38.998231 38.879064 38.766710 38.661405 38.562254
38.469381 38.381926 38.299907 38.222504 38.149633 38.080519 38.014984 37.952306
37.892211 37.834040 37.777430 37.721787 37.666667
38.044444 38.116171 38.188462 38.261797 38.336818 38.413915 38.493800 38.576767
38.663593 38.754470 38.850233 38.950966 39.057554 39.169969 39.289138 39.414918
39.548269 39.688927 39.837880 39.994741 40.160514 40.334686 40.518272 40.710630
40.912776 41.123938 41.345126 41.575438 41.815870 42.065390 42.324972 42.593457
42.871790 43.158689 43.455063 43.759511 44.072903 44.393725 44.722803 45.058520
45.401654 45.750496 46.105777 46.465706 46.830968 47.199704 47.572556 47.947615
48.325482 48.704216 49.084381 49.464024 49.843682 50.221407 50.597713 50.970680
51.340809 51.706224 52.067418 52.422582 52.772207 53.114563 53.450145 53.777320
54.096586 54.406419 54.707321 54.997884 55.278613 55.548226 55.807222 56.054447
56.290391 56.514027 56.725831 56.924901 57.111686 57.285411 57.446488 57.594263