# vtk DataFile Version 3.0
Steady-state temperature (Jacobi)
ASCII
DATASET STRUCTURED_POINTS
DIMENSIONS 181 181 1
ORIGIN 0.0 0.0 0.0
SPACING 0.05 0.05 1.0
POINT_DATA 32761
SCALARS Temperature float 1
LOOKUP_TABLE default
32.000000 32.000000 32.000000 32.000000 32.000000 32.000000 32.000000 32.000000
32.000000 32.000000 32.000000 32.000000 32.000000 32.000000 32.000000 32.000000
32.000000 32.000000 32.000000 32.000000 32.000000 32.000000 32.000000 32.000000
32.000000 32.000000 32.000000 32.000000 32.000000 32.000000 32.000000 32.000000
32.000000 32.000000 32.000000 32.000000 32.000000 32.000000 32.000000 32.000000
32.000000 32.000000 32.000000 32.000000 32.000000 32.000000 32.000000 32.000000
32.000000 32.000000 32.000000 32.000000 32.000000 32.000000 32.000000 32.000000
32.000000 32.000000 32.000000 32.000000 32.000000 32.000000 32.000000 32.000000
32.000000 32.000000 32.000000 32.000000 32.000000 32.000000 32.000000 32.000000
32.000000 32.000000 32.000000 32.000000 32.000000 32.000000 32.000000 32.000000
32.000000 32.000000 32.000000 32.000000 32.000000 32.000000 32.000000 32.000000
32.000000 32.000000 32.000000 32.000000 32.000000 32.000000 32.000000 32.000000
32.000000 32.000000 32.000000 32.000000 32.000000 32.000000 32.000000 32.000000
32.000000 32.000000 32.000000 32.000000 32.000000 32.000000 32.000000 32.000000
32.000000 32.000000 32.000000 32.000000 32.000000 32.000000 32.000000 32.000000
32.000000 32.000000 32.000000 32.000000 32.000000 32.000000 32.000000 32.000000
32.000000 32.000000 32.000000 32.000000 32.000000 32.000000 32.000000 32.000000
32.000000 32.000000 32.000000 32.000000 32.000000 32.000000 32.000000 32.000000
32.000000 32.000000 32.000000 32.000000 32.000000 32.000000 32.000000 32.000000
32.000000 32.000000 32.000000 32.000000 32.000000 32.000000 32.000000 32.000000
32.000000 32.000000 32.000000 32.000000 32.000000 32.000000 32.000000 32.000000
32.000000 32.000000 32.000000 32.000000 32.000000 32.000000 32.000000 32.000000
32.000000 32.000000 32.000000 32.000000 32.000000
32.377778 32.406795 32.435817 32.464853 32.493905 32.522982 32.552088 32.581230
32.610411 32.639637 32.668912 32.698242 32.727629 32.757077 32.786588 32.816166
32.845810 32.875524 32.905306 32.935159 32.965078 32.995065 33.025115 33.055227
33.085394 33.115615 33.145879 33.176185 33.206521 33.236882 33.267254 33.297631
33.327998 33.358348 33.388660 33.418928 33.449129 33.479255 33.509282 33.539198
33.568979 33.598612 33.628072 33.657342 33.686397 33.715221 33.743785 33.772074
33.800058 33.827720 33.855031 33.881974 33.908520 33.934652 33.960340 33.985568
34.010308 34.034544 34.058248 34.081406 34.103991 34.125990 34.147378 34.168142
34.188260 34.207721 34.226505 34.244601 34.261991 34.278667 34.294613 34.309821
34.324278 34.337978 34.350908 34.363065 34.374438 34.385025 34.394816 34.403809
34.411998 34.419380 34.425952 34.431711 34.436653 34.440779 34.444085 34.446571
34.448235 34.449078 34.449100 34.448299 34.446677 34.444234 34.440972 34.436891
34.431994 34.426283 34.419760 34.412428 34.404291 34.395353 34.385619 34.375092
34.363781 34.351689 34.338827 34.325199 34.310818 34.295689 34.279827 34.263239
34.245941 34.227942 34.209261 34.189907 34.169901 34.149255 34.127992 34.106124
34.083676 34.060661 34.037107 34.013029 33.988454 33.963398 33.937889 33.911946
33.885596 33.858857 33.831759 33.804319 33.776567 33.748519 33.720205 33.691641
33.662856 33.633866 33.604698 33.575366 33.545896 33.516303 33.486611 33.456831
33.426987 33.397088 33.367156 33.337200 33.307238 33.277277 33.247335 33.217416
33.187535 33.157696 33.127912 33.098184 33.068523 33.038929 33.009411 32.979968
32.950606 32.921323 32.892123 32.863003 32.833967 32.805009 32.776130 32.747325
32.718595 32.689932 32.661335 32.632798 32.604317 32.575885 32.547499 32.519152
32.490837 32.462549 32.434281 32.406026 32.377778
32.755556 32.813593 32.871643 32.929716 32.987826 33.045983 33.104201 33.162487
33.220854 33.279311 33.337868 33.396531 33.455312 33.514212 33.573242 33.632402
33.691701 33.751134 33.810710 33.870420 33.930271 33.990252 34.050366 34.110597
34.170947 34.231397 34.291944 34.352565 34.413255 34.473987 34.534752 34.595519
34.656276 34.716987 34.777636 34.838185 34.898614 34.958880 35.018961 35.078809
35.138400 35.197683 35.256631 35.315190 35.373330 35.430995 35.488154 35.544750
35.600748 35.656090 35.710743 35.764648 35.817770 35.870051 35.921457 35.971930
36.021438 36.069926 36.117361 36.163691 36.208886 36.252897 36.295695 36.337236
36.377494 36.416427 36.454013 36.490214 36.525011 36.558370 36.590276 36.620698
36.649624 36.677028 36.702899 36.727217 36.749972 36.771147 36.790736 36.808724
36.825107 36.839874 36.853021 36.864539 36.874427 36.882679 36.889293 36.894265
36.897595 36.899281 36.899324 36.897722 36.894477 36.889591 36.883065 36.874903
36.865106 36.853682 36.840633 36.825967 36.809689 36.791810 36.772334 36.751278
36.728647 36.704461 36.678726 36.651466 36.622691 36.592427 36.560689 36.527505
36.492893 36.456886 36.419504 36.380786 36.340754 36.299450 36.256900 36.213151
36.168229 36.122186 36.075052 36.026879 35.977700 35.927571 35.876525 35.824620
35.771890 35.718395 35.664168 35.609270 35.553735 35.497621 35.440962 35.383817
35.326217 35.268219 35.209852 35.151172 35.092205 35.033003 34.973591 34.914016
34.854302 34.794491 34.734603 34.674678 34.614731 34.554798 34.494892 34.435045
34.375264 34.315577 34.255990 34.196527 34.137188 34.077994 34.018943 33.960051
33.901313 33.842742 33.784331 33.726088 33.668004 33.610084 33.552318 33.494706
33.437236 33.379908 33.322707 33.265630 33.208662 33.151796 33.095019 33.038321
32.981688 32.925108 32.868568 32.812055 32.755556
33.133333 33.220399 33.307482 33.394603 33.481776 33.569024 33.656358 33.743800
33.831360 33.919060 34.006905 34.094917 34.183098 34.271467 34.360025 34.448786
34.537747 34.626922 34.716300 34.805894 34.895688 34.985690 35.075880 35.166262
35.256810 35.347522 35.438368 35.529342 35.620405 35.711549 35.802729 35.893929
35.985099 36.076219 36.167231 36.258111 36.348796 36.439256 36.529421 36.619257
36.708690 36.797681 36.886152 36.974058 37.061319 37.147887 37.233677 37.318641
37.402690 37.485775 37.567807 37.648733 37.728467 37.806957 37.884115 37.959891
38.034200 38.106994 38.178191 38.247745 38.315579 38.381649 38.445884 38.508245
38.568665 38.627108 38.683516 38.737857 38.790078 38.840151 38.888031 38.933694
38.977100 39.018230 39.057051 39.093548 39.127691 39.159470 39.188862 39.215857
39.240437 39.262597 39.282321 39.299606 39.314441 39.326823 39.336745 39.344207
39.349203 39.351733 39.351796 39.349393 39.344525 39.337192 39.327401 39.315153
39.300456 39.283312 39.263734 39.241726 39.217303 39.190471 39.161250 39.129649
39.095692 39.059391 39.020776 38.979861 38.936682 38.891257 38.843628 38.793818
38.741874 38.687825 38.631723 38.573601 38.513520 38.451514 38.387652 38.321973
38.254550 38.185427 38.114680 38.042359 37.968543 37.893284 37.816665 37.738740
37.659594 37.579281 37.497889 37.415471 37.332116 37.247874 37.162835 37.077047
36.990597 36.903531 36.815932 36.727845 36.639348 36.550482 36.461319 36.371897
36.282284 36.192510 36.102640 36.012699 35.922744 35.832795 35.742905 35.653087
35.563388 35.473816 35.384411 35.295177 35.206147 35.117320 35.028725 34.940355
34.852232 34.764348 34.676717 34.589327 34.502189 34.415287 34.328626 34.242189
34.155975 34.069966 33.984156 33.898525 33.813065 33.727755 33.642581 33.557523
33.472566 33.387687 33.302869 33.218091 33.133333
33.511111 33.627215 33.743344 33.859521 33.975773 34.092119 34.208587 34.325193
34.441965 34.558915 34.676070 34.793439 34.911046 35.028894 35.147006 35.265380
35.384036 35.502964 35.622181 35.741673 35.861450 35.981491 36.101802 36.222353
36.343147 36.464146 36.585344 36.706697 36.828193 36.949779 37.071437 37.193103
37.314755 37.436321 37.557770 37.679022 37.800041 37.920738 38.041069 38.160941
38.280301 38.399051 38.517132 38.634439 38.750911 38.866435 38.980949 39.094336
39.206529 39.317411 39.426912 39.534916 39.641352 39.746104 39.849102 39.950232
40.049427 40.146576 40.241614 40.334437 40.424983 40.513154 40.598894 40.682112
40.762756 40.840743 40.916028 40.988537 41.058229 41.125040 41.188935 41.249857
41.307779 41.362651 41.414452 41.463139 41.508695 41.551087 41.590300 41.626308
41.659102 41.688658 41.714972 41.738025 41.757815 41.774330 41.787566 41.797517
41.804181 41.807556 41.807640 41.804434 41.797940 41.788161 41.775100 41.758764
41.739157 41.716292 41.690173 41.660818 41.628234 41.592444 41.553457 41.511304
41.465996 41.417570 41.366043 41.311459 41.253838 41.193234 41.129672 41.063213
40.993889 40.921769 40.846892 40.769334 40.689141 40.606397 40.521154 40.433505
40.343506 40.251257 40.156820 40.060300 39.961764 39.861323 39.759045 39.655045
39.549393 39.442207 39.333559 39.223566 39.112298 38.999874 38.886361 38.771877
38.656485 38.540299 38.423380 38.305837 38.187724 38.069145 37.950151 37.830837
37.711247 37.591471 37.471545 37.351551 37.231518 37.111521 36.991581 36.871765
36.752087 36.632604 36.513326 36.394300 36.275529 36.157052 36.038866 35.921003
35.803454 35.686243 35.569355 35.452808 35.336583 35.220689 35.105106 34.989835
34.874852 34.760153 34.645713 34.531522 34.417551 34.303788 34.190203 34.076777
33.963482 33.850296 33.737188 33.624136 33.511111
33.888889 34.034047 34.179235 34.324486 34.469826 34.615291 34.760903 34.906697
35.052691 35.198919 35.345395 35.492152 35.639196 35.786558 35.934238 36.082265
36.230630 36.379357 36.528431 36.677870 36.827651 36.977787 37.128243 37.279027
37.430096 37.581449 37.733033 37.884840 38.036806 38.188914 38.341092 38.493314
38.645494 38.797601 38.949538 39.101263 39.252672 39.403713 39.554273 39.704291
39.853645 40.002268 40.150029 40.296856 40.442610 40.587214 40.730524 40.872457
41.012868 41.151670 41.288717 41.423919 41.557131 41.688263 41.817172 41.943770
42.067917 42.189530 42.308473 42.424666 42.537984 42.648351 42.755648 42.859809
42.960723 43.058332 43.152535 43.243280 43.330479 43.414087 43.494026 43.570259
43.642719 43.711377 43.776174 43.837087 43.894069 43.947102 43.996148 44.041192
44.082204 44.119176 44.152082 44.180918 44.205665 44.226321 44.242872 44.255318
44.263651 44.267871 44.267976 44.263967 44.255846 44.243615 44.227282 44.206850
44.182331 44.153731 44.121067 44.084347 44.043596 43.998824 43.950063 43.897326
43.840655 43.780067 43.715612 43.647314 43.575231 43.499394 43.419872 43.336703
43.249965 43.159705 43.066013 42.968940 42.868589 42.765020 42.658345 42.548630
42.435997 42.320520 42.202328 42.081502 41.958178 41.832440 41.704431 41.574238
41.442008 41.307828 41.171848 41.034156 40.894902 40.754172 40.612113 40.468810
40.324406 40.178980 40.032672 39.885555 39.737762 39.589359 39.440472 39.291159
39.141537 38.991656 38.841623 38.691480 38.541325 38.391189 38.241160 38.091262
37.941570 37.792100 37.642918 37.494029 37.345490 37.197299 37.049501 36.902087
36.755093 36.608503 36.462343 36.316592 36.171267 36.026341 35.881823 35.737682
35.593920 35.450502 35.307422 35.164643 35.022153 34.879915 34.737908 34.596096
34.454453 34.312942 34.171535 34.030194 33.888889
34.266667 34.440895 34.615162 34.789502 34.963955 35.138552 35.313335 35.488329
35.663576 35.839096 36.014928 36.191087 36.367609 36.544500 36.721795 36.899491
37.077619 37.256165 37.435155 37.614566 37.794417 37.974675 38.155351 38.336400
38.517825 38.699570 38.881629 39.063933 39.246467 39.429148 39.611952 39.794784
39.977608 40.160317 40.342864 40.525131 40.707060 40.888519 41.069443 41.249687
41.429176 41.607758 41.785347 41.961782 42.136970 42.310744 42.483004 42.653577
42.822360 42.989177 43.153921 43.316415 43.476552 43.634156 43.789121 43.941275
44.090515 44.236674 44.379653 44.519295 44.655506 44.788139 44.917107 45.042273
45.163561 45.280845 45.394057 45.503085 45.607871 45.708315 45.804367 45.895943
45.983001 46.065467 46.143311 46.216469 46.284918 46.348605 46.407515 46.461604
46.510861 46.555253 46.594772 46.629393 46.659111 46.683910 46.703785 46.718726
46.728733 46.733799 46.733925 46.729111 46.719360 46.704676 46.685062 46.660531
46.631087 46.596747 46.557520 46.513429 46.464485 46.410722 46.352153 46.288821
46.220745 46.147977 46.070544 45.988508 45.901902 45.810802 45.715250 45.615332
45.511100 45.402654 45.290053 45.173413 45.052801 44.928345 44.800122 44.668272
44.532881 44.394100 44.252021 44.106806 43.958554 43.807433 43.653547 43.497070
43.338110 43.176843 43.013379 42.847895 42.680499 42.511370 42.340611 42.168398
41.994830 41.820077 41.644231 41.467458 41.289841 41.111535 40.932617 40.753233
40.573447 40.393394 40.213131 40.032780 39.852385 39.672058 39.491831 39.311804
39.131998 38.952500 38.773322 38.594536 38.416145 38.238209 38.060723 37.883733
37.707225 37.531236 37.355742 37.180770 37.006290 36.832317 36.658817 36.485794
36.313210 36.141061 35.969305 35.797929 35.626888 35.456163 35.285709 35.115498
34.945485 34.775638 34.605912 34.436269 34.266667
34.644444 34.847765 35.051130 35.254583 35.458166 35.661925 35.865894 36.070123
36.274638 36.479488 36.684693 36.890298 37.096315 37.302787 37.509717 37.717142
37.925053 38.133485 38.342417 38.551875 38.761827 38.972291 39.183221 39.394628
39.606452 39.818691 40.031274 40.244187 40.457344 40.670720 40.884213 41.097787
41.311325 41.524778 41.738014 41.950973 42.163508 42.375545 42.586925 42.797564
43.007288 43.216003 43.423523 43.629746 43.834477 44.037604 44.238927 44.438325
44.635594 44.830610 45.023165 45.213133 45.400308 45.584562 45.765692 45.943573
46.118009 46.288877 46.455990 46.619233 46.778427 46.933467 47.084186 47.230488
47.372219 47.509295 47.641577 47.768992 47.891415 48.008784 48.120992 48.227986
48.329674 48.426015 48.516930 48.602386 48.682319 48.756705 48.825491 48.888660
48.946169 48.998008 49.044144 49.084570 49.119262 49.148216 49.171417 49.188862
49.200541 49.206456 49.206603 49.200982 49.189599 49.172454 49.149559 49.120916
49.086543 49.046445 49.000648 48.949160 48.892016 48.829227 48.760838 48.686866
48.607367 48.522366 48.431929 48.336090 48.234930 48.128489 48.016865 47.900109
47.778331 47.651595 47.520027 47.383701 47.242758 47.097284 46.947435 46.793307
46.635071 46.472830 46.306769 46.137001 45.963718 45.787040 45.607170 45.424230
45.238429 45.049892 44.858830 44.665369 44.469719 44.272005 44.072434 43.871127
43.668286 43.464025 43.258539 43.051933 42.844394 42.636017 42.426977 42.217359
42.007326 41.796949 41.586379 41.375675 41.164973 40.954319 40.743835 40.533554
40.323582 40.113941 39.904721 39.695933 39.487651 39.279876 39.072669 38.866017
38.659968 38.454502 38.249652 38.045389 37.841736 37.638655 37.436156 37.234198
37.032780 36.831853 36.631408 36.431394 36.231790 36.032545 35.833631 35.634993
35.436596 35.238388 35.040327 34.842361 34.644444
35.022222 35.254658 35.487147 35.719735 35.952477 36.185416 36.418608 36.652089
36.885914 37.120112 37.354737 37.589808 37.825376 38.061450 38.298077 38.535254
38.773023 39.011368 39.250323 39.489860 39.730004 39.970712 40.212000 40.453809
40.696145 40.938931 41.182161 41.425745 41.669660 41.913800 42.158130 42.402525
42.646936 42.891220 43.135316 43.379063 43.622385 43.865105 44.107133 44.348279
44.588437 44.827404 45.065064 45.301201 45.535687 45.768298 45.998898 46.227255
46.453226 46.676576 46.897157 47.114733 47.329156 47.540191 47.747691 47.951425
48.151252 48.346949 48.538380 48.725334 48.907684 49.085231 49.257859 49.425384
49.587703 49.744647 49.896127 50.041992 50.182165 50.316514 50.444973 50.567429
50.683829 50.794077 50.898131 50.995909 51.087382 51.172483 51.251190 51.323449
51.389246 51.448538 51.501317 51.547552 51.587236 51.620348 51.646885 51.666833
51.680192 51.686955 51.687123 51.680695 51.667674 51.648068 51.621878 51.589121
51.549801 51.503942 51.451549 51.392658 51.327277 51.255452 51.177197 51.092570
51.001592 50.904333 50.800824 50.691150 50.575351 50.453528 50.325735 50.192087
50.052651 49.907561 49.756896 49.600808 49.439390 49.272811 49.101176 48.924672
48.743415 48.557608 48.367377 48.172939 47.974427 47.772070 47.566008 47.356477
47.143622 46.927683 46.708806 46.487234 46.263112 46.036681 45.808082 45.577552
45.345224 45.111330 44.875995 44.639438 44.401776 44.163216 43.923862 43.683908
43.443443 43.202649 42.961599 42.720458 42.479287 42.238231 41.997339 41.756738
41.516460 41.276619 41.037230 40.798390 40.560103 40.322447 40.085413 39.849064
39.613380 39.378408 39.144118 38.910541 38.677640 38.445431 38.213869 37.982958
37.752647 37.522928 37.293745 37.065078 36.836870 36.609091 36.381680 36.154600
35.927789 35.701203 35.474782 35.248475 35.022222
35.400000 35.661579 35.923215 36.184968 36.446892 36.709048 36.971483 37.234259
37.497413 37.761010 38.025075 38.289670 38.554810 38.820553 39.086902 39.353908
39.621562 39.889907 40.158920 40.428634 40.699010 40.970073 41.241765 41.514099
41.787000 42.060468 42.334411 42.608812 42.883561 43.158626 43.433877 43.709267
43.984645 44.259950 44.535010 44.809746 45.083970 45.357587 45.630388 45.902264
46.172991 46.442444 46.710385 46.976676 47.241066 47.503406 47.763437 48.021000
48.275829 48.527760 48.776523 49.021952 49.263776 49.501830 49.735848 49.965665
50.191025 50.411769 50.627650 50.838520 51.044146 51.244390 51.439035 51.627957
51.810957 51.987926 52.158684 52.323137 52.481127 52.632573 52.777338 52.915357
53.046511 53.170750 53.287975 53.398145 53.501181 53.597052 53.685695 53.767088
53.841181 53.907960 53.967387 54.019454 54.064133 54.101419 54.131294 54.153755
54.168793 54.176408 54.176596 54.169358 54.154699 54.132621 54.103137 54.066249
54.021979 53.970332 53.911340 53.845010 53.771385 53.690478 53.602344 53.507004
53.404525 53.294938 53.178327 53.054731 52.924253 52.786946 52.642929 52.492270
52.335109 52.171527 52.001685 51.825680 51.643692 51.455834 51.262306 51.063234
50.858839 50.649257 50.434727 50.215397 49.991518 49.763249 49.530850 49.294485
49.054426 48.810837 48.563993 48.314060 48.061313 47.805915 47.548136 47.288135
47.026175 46.762406 46.497081 46.230339 45.962421 45.693452 45.423660 45.153154
44.882146 44.610730 44.339098 44.067329 43.795597 43.523962 43.252580 42.981495
42.710842 42.440648 42.171031 41.902001 41.633656 41.365994 41.099091 40.832932
40.567577 40.302998 40.039238 39.776258 39.514083 39.252668 38.992021 38.732089
38.472868 38.214297 37.956359 37.698990 37.442161 37.185804 36.929881 36.674322
36.419081 36.164087 35.909286 35.654610 35.400000
35.777778 36.068527 36.359342 36.650286 36.941428 37.232824 37.524544 37.816636
38.109172 38.402188 38.695753 38.989894 39.284676 39.580113 39.876264 40.173128
40.470758 40.769137 41.068310 41.368241 41.668965 41.970429 42.272655 42.575570
42.879182 43.183398 43.488211 43.793507 44.099262 44.405341 44.711702 45.018188
45.324738 45.631175 45.937418 46.243269 46.548628 46.853276 47.157097 47.459851
47.761405 48.061500 48.359990 48.656600 48.951168 49.243409 49.533150 49.820095
50.104062 50.384751 50.661975 50.935432 51.204933 51.470177 51.730978 51.987043
52.238190 52.484137 52.724709 52.959638 53.188764 53.411834 53.628701 53.839134
54.043001 54.240092 54.430293 54.613417 54.789366 54.957978 55.119171 55.272806
55.418818 55.557088 55.687568 55.810159 55.924826 56.031488 56.130120 56.220660
56.303090 56.377364 56.443469 56.501372 56.551067 56.592528 56.625754 56.650729
56.667452 56.675918 56.676126 56.668078 56.651774 56.627225 56.594431 56.553412
56.504170 56.446733 56.381109 56.307334 56.225422 56.135422 56.037353 55.931281
55.817231 55.695288 55.565487 55.427931 55.282670 55.129825 54.969462 54.801725
54.626695 54.444538 54.255354 54.059333 53.856590 53.647339 53.431712 53.209944
52.982184 52.748687 52.509615 52.265240 52.015737 51.761392 51.502388 51.239022
50.971481 50.700069 50.424976 50.146508 49.864852 49.580313 49.293074 49.003433
48.711563 48.417756 48.122172 47.825089 47.526656 47.227134 46.926655 46.625464
46.323676 46.021517 45.719081 45.416574 45.114074 44.811763 44.509699 44.208045
43.906839 43.606221 43.306213 43.006931 42.708381 42.410659 42.113755 41.817742
41.522598 41.228376 40.935040 40.642626 40.351086 40.060439 39.770627 39.481652
39.193450 38.906009 38.619256 38.333167 38.047665 37.762714 37.478235 37.194180
36.910471 36.627049 36.343838 36.060772 35.777778
36.155556 36.475506 36.795529 37.115700 37.436085 37.756763 38.077792 38.399252
38.721190 39.043686 39.366774 39.690532 40.014981 40.340192 40.666173 40.992988
41.320628 41.649147 41.978520 42.308789 42.639908 42.971910 43.304725 43.638372
43.972761 44.307893 44.643654 44.980030 45.316882 45.654176 45.991750 46.329550
46.667390 47.005194 47.342752 47.679968 48.016609 48.352556 48.687555 49.021467
49.354017 49.685049 50.014267 50.341500 50.666435 50.988887 51.308532 51.625173
51.938477 52.248238 52.554122 52.855917 53.153289 53.446027 53.733801 54.016406
54.293520 54.564945 54.830375 55.089624 55.342402 55.588538 55.827764 56.059925
56.284777 56.502185 56.711929 56.913894 57.107886 57.293809 57.471497 57.640871
57.801791 57.954196 58.097968 58.233063 58.359386 58.476904 58.585542 58.685280
58.776057 58.857862 58.930651 58.994417 59.049128 59.094783 59.131360 59.158859
59.177268 59.186588 59.186816 59.177953 59.160005 59.132973 59.096870 59.051700
58.997485 58.934230 58.861969 58.780711 58.690503 58.591358 58.483339 58.366467
58.240822 58.106438 57.963412 57.811791 57.651697 57.483189 57.306415 57.121451
56.928470 56.727568 56.518942 56.302710 56.079094 55.848231 55.610369 55.365664
55.114388 54.856714 54.592934 54.323236 54.047930 53.767217 53.481420 53.190746
52.895530 52.595983 52.292444 51.985125 51.674364 51.360370 51.043476 50.723883
50.401917 50.077766 49.751745 49.424026 49.094909 48.764550 48.433229 48.101083
47.768373 47.435216 47.101847 46.768365 46.434982 46.101773 45.768927 45.436500
45.104654 44.773424 44.442949 44.113245 43.784428 43.456493 43.129534 42.803530
42.478552 42.154565 41.831617 41.509661 41.188726 40.868752 40.549749 40.231650
39.914447 39.598063 39.282477 38.967607 38.653415 38.339818 38.026765 37.714171
37.401974 37.090089 36.778446 36.466960 36.155556
36.533333 36.882516 37.231782 37.581207 37.930877 38.280863 38.631251 38.982101
39.333502 39.685500 40.038181 40.391580 40.745777 41.100791 41.456696 41.813495
42.171252 42.529951 42.889646 43.250299 43.611953 43.974547 44.338108 44.702554
45.067893 45.434018 45.800921 46.168467 46.536628 46.905243 47.274261 47.643496
48.012875 48.382183 48.751325 49.120059 49.488266 49.855680 50.222159 50.587412
50.951276 51.313439 51.673716 52.031776 52.387418 52.740295 53.090191 53.436746
53.779735 54.118790 54.453679 54.784033 55.109617 55.430063 55.745141 56.054491
56.357888 56.654986 56.945572 57.229318 57.506025 57.775387 58.037224 58.291255
58.537319 58.775164 59.004652 59.225558 59.437766 59.641081 59.835410 60.020587
60.196537 60.363122 60.520286 60.667917 60.805976 60.934371 61.053077 61.162023
61.261194 61.350536 61.430042 61.499672 61.559424 61.609272 61.649214 61.679236
61.699337 61.709511 61.709759 61.700082 61.680482 61.650967 61.611540 61.562220
61.503007 61.433933 61.355001 61.266255 61.167702 61.059401 60.941368 60.813678
60.676357 60.529500 60.373148 60.207417 60.032365 59.848134 59.654799 59.452530
59.241422 59.021675 58.793406 58.556842 58.312125 58.059510 57.799160 57.531359
57.256289 56.974260 56.685473 56.390259 56.088834 55.781547 55.468625 55.150431
54.827198 54.499297 54.166965 53.830574 53.490358 53.146690 52.799795 52.450037
52.097633 51.742936 51.386144 51.027597 50.667477 50.306101 49.943633 49.580367
49.216446 48.852141 48.487569 48.122977 47.758459 47.394234 47.030373 46.667069
46.304369 45.942438 45.581303 45.221102 44.861840 44.503630 44.146457 43.790410
43.435457 43.081662 42.728977 42.377444 42.027004 41.677675 41.329386 40.982138
40.635850 40.290505 39.946014 39.602344 39.259403 38.917142 38.575465 38.234313
37.893587 37.553217 37.213107 36.873176 36.533333
36.911111 37.289561 37.668099 38.046818 38.425800 38.805141 39.184912 39.565211
39.946097 40.327666 40.709965 41.093085 41.477057 41.861967 42.247828 42.634717
43.022629 43.411630 43.801693 44.192871 44.585113 44.978458 45.372831 45.768252
46.164620 46.561937 46.960072 47.359007 47.758583 48.158759 48.559345 48.960276
49.361335 49.762429 50.163312 50.563866 50.963816 51.363018 51.761170 52.158103
52.553489 52.947137 53.338694 53.727950 54.114531 54.498209 54.878596 55.255447
55.628366 55.997097 56.361237 56.720528 57.074565 57.423089 57.765704 58.102155
58.432057 58.755165 59.071113 59.379672 59.680495 59.973374 60.257988 60.534150
60.801570 61.060085 61.309436 61.549486 61.780008 62.000889 62.211936 62.413059
62.604097 62.784980 62.955577 63.115838 63.265658 63.405004 63.533792 63.652003
63.759574 63.856495 63.942719 64.018243 64.083034 64.137093 64.180399 64.212953
64.234745 64.245776 64.246044 64.235549 64.214298 64.182291 64.139542 64.086050
64.021842 63.946918 63.861315 63.765037 63.658134 63.540619 63.412559 63.273974
63.124952 62.965526 62.795808 62.615848 62.425783 62.225681 62.015710 61.795960
61.566630 61.327833 61.079801 60.822672 60.556711 60.282081 59.999077 59.707888
59.408838 59.102138 58.788138 58.467070 58.139304 57.805086 57.464807 57.118722
56.767232 56.410597 56.049227 55.683380 55.313467 54.939741 54.562606 54.182306
53.799233 53.413619 53.025839 52.636106 52.244777 51.852043 51.458237 51.063528
50.668223 50.272465 49.876534 49.480547 49.084756 48.689251 48.294255 47.899831
47.506174 47.113321 46.721437 46.330538 45.940757 45.552091 45.164644 44.778392
44.393414 44.009667 43.627205 43.245969 42.865990 42.487196 42.109595 41.733103
41.357709 40.983320 40.609906 40.237367 39.865658 39.494675 39.124357 38.754597
38.385322 38.016427 37.647828 37.279420 36.911111
37.288889 37.696638 38.104486 38.512528 38.920868 39.329589 39.738798 40.148568
40.559005 40.970169 41.382162 41.795029 42.208867 42.623702 43.039625 43.456641
43.874830 44.294176 44.714746 45.136501 45.559490 45.983650 46.409013 46.835486
47.263084 47.691682 48.121274 48.551705 48.982943 49.414803 49.847227 50.279997
50.713028 51.146071 51.579011 52.011567 52.443598 52.874790 53.304973 53.733805
54.161091 54.586459 55.009690 55.430390 55.848317 56.263056 56.674348 57.081764
57.485029 57.883708 58.277515 58.666012 59.048911 59.425777 59.796325 60.160129
60.516914 60.866270 61.207936 61.541524 61.866793 62.183382 62.491074 62.789537
63.078581 63.357910 63.627360 63.886671 64.135709 64.374248 64.602183 64.819322
65.025586 65.220818 65.404958 65.577883 65.739551 65.889866 66.028803 66.156287
66.272307 66.376808 66.469785 66.551200 66.621054 66.679321 66.726004 66.761089
66.784577 66.796464 66.796751 66.785440 66.762530 66.728033 66.681946 66.624289
66.555060 66.474289 66.381977 66.278167 66.162864 66.036127 65.897971 65.748474
65.587661 65.415636 65.232439 65.038200 64.832980 64.616939 64.390161 64.152839
63.905082 63.647119 63.379087 63.101251 62.813775 62.516961 62.211002 61.896232
61.572870 61.241283 60.901714 60.554555 60.200068 59.838670 59.470635 59.096396
58.716238 58.330602 57.939776 57.544205 57.144174 56.740125 56.332333 55.921232
55.507083 55.090305 54.671140 54.249989 53.827071 53.402761 52.977257 52.550905
52.123875 51.696485 51.268876 50.841336 50.413976 49.987051 49.560646 49.134983
48.710118 48.286240 47.863380 47.441696 47.021193 46.601998 46.184094 45.767579
45.352413 44.938667 44.526285 44.115308 43.705666 43.297377 42.890354 42.484594
42.080000 41.676548 41.274131 40.872706 40.472163 40.072440 39.673424 39.275040
38.877171 38.479730 38.082604 37.685694 37.288889
37.666667 38.103750 38.540939 38.978345 39.416067 39.854220 40.292891 40.732194
41.172205 41.613038 42.054750 42.497452 42.941183 43.386047 43.832063 44.279326
44.727831 45.177661 45.628787 46.081276 46.535073 46.990226 47.446653 47.904380
48.363295 48.823401 49.284553 49.746730 50.209754 50.673574 51.137979 51.602890
52.068058 52.533376 52.998560 53.463471 53.927789 54.391346 54.853789 55.314919
55.774351 56.231858 56.687028 57.139606 57.589157 58.035403 58.477890 58.916322
59.350232 59.779310 60.203082 60.621234 61.033289 61.438934 61.837700 62.229278
62.613216 62.989218 63.356852 63.715842 64.065783 64.406424 64.737391 65.058462
65.369300 65.669712 65.959402 66.238208 66.505874 66.762269 67.007176 67.240495
67.462046 67.671757 67.869482 68.055172 68.228713 68.390075 68.539171 68.675986
68.800457 68.912578 69.012305 69.099639 69.174549 69.237042 69.287097 69.324721
69.349904 69.362649 69.362955 69.350823 69.326259 69.289260 69.239841 69.177999
69.103756 69.017108 68.918092 68.806707 68.683003 68.546985 68.398723 68.238233
68.065608 67.880878 67.684162 67.475512 67.255077 67.022932 66.779262 66.524168
66.257874 65.980510 65.692338 65.393522 65.084364 64.765058 64.435945 64.097251
63.749354 63.392506 63.027118 62.653467 62.271993 61.882989 61.486917 61.084084
60.674967 60.259878 59.839301 59.413550 58.983107 58.548280 58.109544 57.667194
57.221691 56.773313 56.322502 55.869511 55.414759 54.958474 54.501045 54.042671
53.583712 53.124335 52.664865 52.205440 51.746351 51.287702 50.829748 50.372565
49.916373 49.461216 49.007280 48.554582 48.103272 47.653344 47.204914 46.757952
46.312544 45.868638 45.426291 44.985433 44.546093 44.108186 43.671715 43.236581
42.802766 42.370160 41.938722 41.508335 41.078941 40.650417 40.222687 39.795625
39.369144 38.943116 38.517440 38.091994 37.666667
38.044444 38.510893 38.977461 39.444259 39.911411 40.379019 40.847208 41.316067
41.785721 42.256245 42.727759 43.200320 43.674043 44.148965 44.625191 45.102735
45.581692 46.062049 46.543887 47.027165 47.511947 47.998162 48.485853 48.974918
49.465376 49.957092 50.450057 50.944101 51.439189 51.935112 52.431805 52.929021
53.426662 53.924444 54.422234 54.919711 55.416708 55.912866 56.407985 56.901670
57.393688 57.883613 58.371180 58.855933 59.337583 59.815647 60.289814 60.759584
61.224627 61.684432 62.138658 62.586789 63.028481 63.463222 63.890671 64.310328
64.721863 65.124796 65.518815 65.903467 66.278464 66.643388 66.997979 67.341857
67.674798 67.996462 68.306660 68.605096 68.891617 69.165971 69.428040 69.677614
69.914605 70.138845 70.350274 70.548759 70.734264 70.906687 71.066010 71.212158