# vtk DataFile Version 3.0
Steady-state temperature (Jacobi)
ASCII
DATASET STRUCTURED_POINTS
DIMENSIONS 181 181 1
ORIGIN 0.0 0.0 0.0
SPACING 0.05 0.05 1.0
POINT_DATA 32761
SCALARS Temperature float 1
LOOKUP_TABLE default
32.000000 32.000000 32.000000 32.000000 32.000000 32.000000 32.000000 32.000000
32.000000 32.000000 32.000000 32.000000 32.000000 32.000000 32.000000 32.000000
32.000000 32.000000 32.000000 32.000000 32.000000 32.000000 32.000000 32.000000
32.000000 32.000000 32.000000 32.000000 32.000000 32.000000 32.000000 32.000000
32.000000 32.000000 32.000000 32.000000 32.000000 32.000000 32.000000 32.000000
32.000000 32.000000 32.000000 32.000000 32.000000 32.000000 32.000000 32.000000
32.000000 32.000000 32.000000 32.000000 32.000000 32.000000 32.000000 32.000000
32.000000 32.000000 32.000000 32.000000 32.000000 32.000000 32.000000 32.000000
32.000000 32.000000 32.000000 32.000000 32.000000 32.000000 32.000000 32.000000
32.000000 32.000000 32.000000 32.000000 32.000000 32.000000 32.000000 32.000000
32.000000 32.000000 32.000000 32.000000 32.000000 32.000000 32.000000 32.000000
32.000000 32.000000 32.000000 32.000000 32.000000 32.000000 32.000000 32.000000
32.000000 32.000000 32.000000 32.000000 32.000000 32.000000 32.000000 32.000000
32.000000 32.000000 32.000000 32.000000 32.000000 32.000000 32.000000 32.000000
32.000000 32.000000 32.000000 32.000000 32.000000 32.000000 32.000000 32.000000
32.000000 32.000000 32.000000 32.000000 32.000000 32.000000 32.000000 32.000000
32.000000 32.000000 32.000000 32.000000 32.000000 32.000000 32.000000 32.000000
32.000000 32.000000 32.000000 32.000000 32.000000 32.000000 32.000000 32.000000
32.000000 32.000000 32.000000 32.000000 32.000000 32.000000 32.000000 32.000000
32.000000 32.000000 32.000000 32.000000 32.000000 32.000000 32.000000 32.000000
32.000000 32.000000 32.000000 32.000000 32.000000 32.000000 32.000000 32.000000
32.000000 32.000000 32.000000 32.000000 32.000000 32.000000 32.000000 32.000000
32.000000 32.000000 32.000000 32.000000 32.000000
32.377778 32.408510 32.439246 32.469991 32.500746 32.531518 32.562308 32.593121
32.623960 32.654828 32.685726 32.716659 32.747626 32.778632 32.809675 32.840757
32.871878 32.903039 32.934236 32.965471 32.996739 33.028039 33.059365 33.090716
33.122085 33.153467 33.184855 33.216242 33.247620 33.278980 33.310311 33.341605
33.372847 33.404028 33.435132 33.466148 33.497058 33.527849 33.558503 33.589004
33.619333 33.649473 33.679403 33.709106 33.738558 33.767743 33.796636 33.825218
33.853466 33.881360 33.908876 33.935995 33.962691 33.988946 34.014736 34.040042
34.064840 34.089113 34.112838 34.135999 34.158573 34.180546 34.201897 34.222611
34.242672 34.262066 34.280777 34.298792 34.316099 34.332687 34.348543 34.363659
34.378024 34.391633 34.404474 34.416544 34.427833 34.438340 34.448056 34.456979
34.465105 34.472430 34.478951 34.484667 34.489575 34.493674 34.496962 34.499438
34.501102 34.501954 34.501992 34.501218 34.499632 34.497233 34.494024 34.490005
34.485179 34.479545 34.473109 34.465870 34.457833 34.449001 34.439378 34.428968
34.417778 34.405811 34.393076 34.379579 34.365327 34.350329 34.334596 34.318136
34.300962 34.283083 34.264516 34.245270 34.225363 34.204808 34.183623 34.161822
34.139427 34.116451 34.092919 34.068845 34.044253 34.019161 33.993593 33.967567
33.941108 33.914236 33.886974 33.859342 33.831365 33.803062 33.774458 33.745571
33.716425 33.687039 33.657435 33.627630 33.597647 33.567500 33.537212 33.506796
33.476271 33.445651 33.414953 33.384188 33.353373 33.322516 33.291633 33.260732
33.229824 33.198916 33.168020 33.137138 33.106282 33.075454 33.044660 33.013904
32.983191 32.952521 32.921899 32.891324 32.860798 32.830321 32.799893 32.769512
32.739178 32.708888 32.678641 32.648433 32.618263 32.588125 32.558018 32.527937
32.497879 32.467837 32.437810 32.407792 32.377778
32.755556 32.817022 32.878496 32.939987 33.001501 33.063045 33.124629 33.186257
33.247937 33.309675 33.371476 33.433343 33.495284 33.557297 33.619389 33.681558
33.743807 33.806132 33.868535 33.931009 33.993554 34.056160 34.118824 34.181533
34.244282 34.307055 34.369844 34.432628 34.495398 34.558129 34.620807 34.683407
34.745909 34.808284 34.870512 34.932558 34.994399 35.055997 35.117327 35.178346
35.239027 35.299325 35.359209 35.418633 35.477563 35.535952 35.593763 35.650948
35.707469 35.763278 35.818335 35.872591 35.926009 35.978538 36.030142 36.080772
36.130392 36.178956 36.226428 36.272765 36.317935 36.361895 36.404615 36.446059
36.486197 36.524997 36.562433 36.598475 36.633101 36.666285 36.698009 36.728249
36.756989 36.784211 36.809902 36.834046 36.856632 36.877648 36.897085 36.914934
36.931189 36.945841 36.958887 36.970320 36.980138 36.988337 36.994914 36.999867
37.003196 37.004899 37.004976 37.003427 37.000254 36.995456 36.989037 36.980998
36.971343 36.960075 36.947198 36.932719 36.916641 36.898974 36.879723 36.858901
36.836513 36.812576 36.787098 36.760096 36.731584 36.701581 36.670103 36.637174
36.602812 36.567045 36.529894 36.491390 36.451559 36.410436 36.368046 36.324431
36.279619 36.233652 36.186564 36.138399 36.089192 36.038990 35.987829 35.935759
35.882816 35.829051 35.774501 35.719218 35.663239 35.606613 35.549379 35.491586
35.433270 35.374479 35.315246 35.255619 35.195629 35.135320 35.074721 35.013873
34.952802 34.891547 34.830131 34.768589 34.706940 34.645216 34.583433 34.521620
34.459789 34.397964 34.336157 34.274387 34.212662 34.150999 34.089401 34.027884
33.966448 33.905103 33.843850 33.782696 33.721638 33.660680 33.599817 33.539053
33.478380 33.417798 33.357300 33.296883 33.236539 33.176263 33.116046 33.055883
32.995763 32.935679 32.875623 32.815585 32.755556
33.133333 33.225538 33.317754 33.409994 33.502269 33.594593 33.686973 33.779422
33.871948 33.964563 34.057271 34.150082 34.243000 34.336033 34.429180 34.522448
34.615832 34.709337 34.802955 34.896686 34.990519 35.084450 35.178464 35.272555
35.366699 35.460888 35.555095 35.649306 35.743487 35.837620 35.931669 36.025608
36.119396 36.213003 36.306382 36.399499 36.492301 36.584749 36.676787 36.768370
36.859437 36.949941 37.039816 37.129011 37.217456 37.305100 37.391868 37.477706
37.562540 37.646314 37.728952 37.810397 37.890574 37.969428 38.046883 38.122886
38.197364 38.270263 38.341517 38.411073 38.478869 38.544856 38.608974 38.671182
38.731424 38.789662 38.845846 38.899942 38.951907 39.001712 39.049319 39.094703
39.137832 39.178685 39.217236 39.253468 39.287358 39.318895 39.348060 39.374844
39.399232 39.421218 39.440791 39.457947 39.472676 39.484978 39.494845 39.502277
39.507271 39.509826 39.509942 39.507618 39.502856 39.495658 39.486027 39.473965
39.459479 39.442572 39.423252 39.401524 39.377402 39.350891 39.322006 39.290758
39.257166 39.221243 39.183011 39.142488 39.099702 39.054673 39.007434 38.958011
38.906443 38.852758 38.797002 38.739209 38.679428 38.617700 38.554078 38.488607
38.421348 38.352347 38.281670 38.209368 38.135510 38.060150 37.983359 37.905194
37.825728 37.745020 37.663144 37.580157 37.496136 37.411137 37.325235 37.238485
37.150960 37.062714 36.973817 36.884319 36.794288 36.703770 36.612828 36.521505
36.429859 36.337929 36.245768 36.153409 36.060902 35.968275 35.875571 35.782813
35.690040 35.597270 35.504536 35.411851 35.319242 35.226721 35.134307 35.042007
34.949838 34.857802 34.765910 34.674161 34.582563 34.491111 34.399810 34.308650
34.217634 34.126751 34.035999 33.945365 33.854844 33.764423 33.674094 33.583843
33.493660 33.403530 33.313442 33.223380 33.133333
33.511111 33.634058 33.757022 33.880017 34.003061 34.126168 34.249353 34.372629
34.496011 34.619508 34.743136 34.866898 34.990809 35.114869 35.239089 35.363465
35.488006 35.612703 35.737560 35.862563 35.987711 36.112986 36.238382 36.363874
36.489451 36.615080 36.740746 36.866409 36.992048 37.117616 37.243084 37.368399
37.493526 37.618404 37.742993 37.867224 37.991050 38.114396 38.237208 38.359405
38.480929 38.601692 38.721631 38.840652 38.958689 39.075644 39.191446 39.305997
39.419221 39.531019 39.641314 39.750007 39.857020 39.962255 40.065636 40.167066
40.266472 40.363760 40.458861 40.551686 40.642169 40.730228 40.815802 40.898815
40.979211 41.056922 41.131899 41.204081 41.273425 41.339877 41.403401 41.463951
41.521497 41.575999 41.627433 41.675766 41.720981 41.763049 41.801956 41.837682
41.870216 41.899541 41.925650 41.948531 41.968178 41.984585 41.997746 42.007658
42.014319 42.017726 42.017880 42.014781 42.008429 41.998829 41.985982 41.969895
41.950571 41.928020 41.902248 41.873268 41.841088 41.805725 41.767192 41.725509
41.680692 41.632769 41.581760 41.527699 41.470609 41.410532 41.347498 41.281556
41.212740 41.141108 41.066700 40.989582 40.909800 40.827426 40.742515 40.655145
40.565375 40.473292 40.378959 40.282468 40.183888 40.083314 39.980819 39.876502
39.770438 39.662728 39.553448 39.442699 39.330558 39.217127 39.102479 38.986715
38.869906 38.752150 38.633515 38.514094 38.393951 38.273174 38.151822 38.029977
37.907692 37.785044 37.662079 37.538866 37.415446 37.291881 37.168205 37.044472
36.920711 36.796968 36.673265 36.549642 36.426114 36.302714 36.179451 36.056353
35.933422 35.810679 35.688124 35.565769 35.443610 35.321656 35.199897 35.078336
34.956961 34.835771 34.714751 34.593896 34.473188 34.352618 34.232169 34.111827
33.991573 33.871394 33.751269 33.631181 33.511111
33.888889 34.042586 34.196304 34.350063 34.503882 34.657781 34.811778 34.965892
35.120138 35.274533 35.429088 35.583819 35.738732 35.893841 36.049146 36.204657
36.360369 36.516288 36.672401 36.828710 36.985196 37.141855 37.298658 37.455597
37.612635 37.769756 37.926915 38.084089 38.241224 38.398289 38.555221 38.711981
38.868497 39.024723 39.180576 39.336003 39.490913 39.645242 39.798894 39.951798
40.103848 40.254966 40.405041 40.553988 40.701691 40.848061 40.992975 41.136341
41.278035 41.417960 41.555993 41.692035 41.825962 41.957678 42.087060 42.214013
42.338420 42.460188 42.579205 42.695384 42.808618 42.918828 43.025914 43.129803
43.230405 43.327654 43.421469 43.511793 43.598553 43.681701 43.761174 43.836932
43.908920 43.977105 44.041443 44.101907 44.158460 44.211082 44.259744 44.304429
44.345116 44.381794 44.414444 44.443060 44.467629 44.488147 44.504604 44.517000
44.525328 44.529589 44.529781 44.525904 44.517962 44.505955 44.489890 44.469771
44.445606 44.417402 44.385172 44.348925 44.308680 44.264447 44.216252 44.164111
44.108055 44.048104 43.984297 43.916661 43.845243 43.770076 43.691216 43.608703
43.522604 43.432965 43.339863 43.243353 43.143520 43.040428 42.934171 42.824821
42.712479 42.597226 42.479170 42.358397 42.235024 42.109139 41.980865 41.850296
41.717556 41.582741 41.445978 41.307364 41.167025 41.025057 40.881586 40.736706
40.590538 40.443172 40.294726 40.145285 39.994961 39.843833 39.692006 39.539552
39.386569 39.233121 39.079297 38.925153 38.770771 38.616198 38.461507 38.306735
38.151947 37.997174 37.842469 37.687855 37.533379 37.379054 37.224919 37.070981
36.917269 36.763785 36.610549 36.457558 36.304825 36.152342 36.000114 35.848129
35.696388 35.544873 35.393579 35.242487 35.091587 34.940856 34.790281 34.639839
34.489511 34.339274 34.189107 34.038986 33.888889
34.266667 34.451123 34.635604 34.820134 35.004739 35.189439 35.374261 35.559222
35.744347 35.929649 36.115152 36.300863 36.486803 36.672974 36.859393 37.046055
37.232972 37.420133 37.607543 37.795182 37.983052 38.171122 38.359386 38.547806
38.736366 38.925018 39.113738 39.302468 39.491175 39.679789 39.868268 40.056532
40.244529 40.432166 40.619383 40.806077 40.992176 41.177568 41.362172 41.545865
41.728559 41.910122 42.090456 42.269423 42.446919 42.622799 42.796954 42.969234
43.139527 43.307680 43.473578 43.637069 43.798037 43.956331 44.111836 44.264407
44.413932 44.560269 44.703312 44.842928 44.979017 45.111453 45.240146 45.364979
45.485872 45.602719 45.715447 45.823964 45.928207 46.028094 46.123573 46.214573
46.301051 46.382948 46.460229 46.532844 46.600768 46.663960 46.722401 46.776058
46.824917 46.868955 46.908161 46.942517 46.972017 46.996649 47.016409 47.031290
47.041288 47.046403 47.046633 47.041978 47.032441 47.018027 46.998737 46.974582
46.945566 46.911703 46.873001 46.829479 46.781148 46.728034 46.670153 46.607537
46.540208 46.468207 46.391562 46.310324 46.224529 46.134237 46.039493 45.940368
45.836917 45.729222 45.617348 45.501389 45.381417 45.257541 45.129841 44.998437
44.863418 44.724914 44.583022 44.437880 44.289594 44.138307 43.984130 43.827212
43.667668 43.505650 43.341274 43.174695 43.006028 42.835426 42.663003 42.488909
42.313254 42.136185 41.957806 41.778256 41.597634 41.416071 41.233657 41.050516
40.866729 40.682409 40.497627 40.312488 40.127053 39.941414 39.755623 39.569761
39.383871 39.198022 39.012246 38.826604 38.641118 38.455837 38.270774 38.085970
37.901429 37.717180 37.533223 37.349578 37.166236 36.983209 36.800483 36.618063
36.435930 36.254081 36.072493 35.891157 35.710047 35.529150 35.348436 35.167888
34.987475 34.807175 34.626958 34.446798 34.266667
34.644444 34.859669 35.074923 35.290236 35.505635 35.721151 35.936806 36.152632
36.368647 36.584878 36.801340 37.018057 37.235038 37.452304 37.669853 37.887704
38.105847 38.324294 38.543026 38.762048 38.981332 39.200874 39.420636 39.640604
39.860729 40.080989 40.301321 40.521693 40.742030 40.962288 41.182381 41.402253
41.621804 41.840968 42.059630 42.277714 42.495093 42.711677 42.927331 43.141953
43.355394 43.567546 43.778250 43.987387 44.194791 44.400336 44.603850 44.805200
45.004212 45.200749 45.394633 45.585727 45.773853 45.958877 46.140621 46.318955
46.493708 46.664751 46.831925 46.995107 47.154145 47.308927 47.459313 47.605200
47.746459 47.883000 48.014709 48.141504 48.263286 48.379985 48.491516 48.597821
48.698827 48.794487 48.884739 48.969549 49.048865 49.122661 49.190896 49.253551
49.310594 49.362011 49.407779 49.447890 49.482326 49.511081 49.534146 49.551516
49.563187 49.569156 49.569424 49.563989 49.552857 49.536028 49.513511 49.485310
49.451438 49.411902 49.366720 49.315902 49.259475 49.197453 49.129869 49.056744
48.978121 48.894027 48.804515 48.709623 48.609413 48.503933 48.393258 48.277447
48.156589 48.030751 47.900039 47.764532 47.624347 47.479575 47.330348 47.176769
47.018979 46.857093 46.691263 46.521613 46.348305 46.171468 45.991273 45.807855
45.621389 45.432013 45.239906 45.045204 44.848089 44.648696 44.447202 44.243741
44.038486 43.831563 43.623140 43.413336 43.202311 42.990175 42.777077 42.563118
42.348436 42.133122 41.917301 41.701052 41.484490 41.267680 41.050724 40.833676
40.616625 40.399615 40.182719 39.965971 39.749432 39.533125 39.317100 39.101369
38.885969 38.670904 38.456202 38.241857 38.027886 37.814277 37.601039 37.388151
37.175614 36.963404 36.751512 36.539911 36.328585 36.117503 35.906644 35.695976
35.485472 35.275098 35.064825 34.854618 34.644444
35.022222 35.268226 35.514264 35.760370 36.006579 36.252919 36.499427 36.746127
36.993054 37.240226 37.487674 37.735412 37.983467 38.231844 38.480565 38.729626
38.979043 39.228802 39.478912 39.729349 39.980112 40.231165 40.482497 40.734061
40.985835 41.237757 41.489795 41.741873 41.993945 42.245921 42.497743 42.749305
43.000538 43.251319 43.501564 43.751139 43.999945 44.247833 44.494694 44.740363
44.984718 45.227586 45.468832 45.708271 45.945761 46.181108 46.414163 46.644724
46.872638 47.097700 47.319752 47.538590 47.754055 47.965945 48.174103 48.378332
48.578479 48.774355 48.965816 49.152680 49.334814 49.512049 49.684261 49.851296
50.013043 50.169362 50.320156 50.465301 50.604713 50.738285 50.865947 50.987605
51.103204 51.212665 51.315943 51.412976 51.503728 51.588149 51.666212 51.737879
51.803131 51.861938 51.914287 51.960158 51.999542 52.032425 52.058802 52.078664
52.092010 52.098835 52.099139 52.092924 52.080192 52.060947 52.035194 52.002943
51.964201 51.918985 51.867303 51.809181 51.744630 51.673685 51.596364 51.512709
51.422747 51.326531 51.224098 51.115512 51.000821 50.880105 50.753420 50.620863
50.482504 50.338453 50.188796 50.033657 49.873137 49.707377 49.536487 49.360627
49.179919 48.994535 48.804609 48.610325 48.411828 48.209310 48.002922 47.792867
47.579299 47.362425 47.142402 46.919437 46.693690 46.465366 46.234620 46.001655
45.766619 45.529711 45.291071 45.050888 44.809293 44.566465 44.322525 44.077638
43.831914 43.585504 43.338506 43.091056 42.843239 42.595177 42.346939 42.098634
41.850317 41.602082 41.353971 41.106063 40.858388 40.611010 40.363948 40.117251
39.870928 39.625016 39.379512 39.134443 38.889796 38.645585 38.401793 38.158422
37.915448 37.672865 37.430642 37.188766 36.947201 36.705927 36.464906 36.224111
35.983502 35.743048 35.502707 35.262446 35.022222
35.400000 35.676795 35.953629 36.230542 36.507569 36.784753 37.062123 37.339721
37.617571 37.895711 38.174161 38.452953 38.732099 39.011629 39.291542 39.571862
39.852579 40.133709 40.415231 40.697150 40.979432 41.262073 41.545026 41.828274
42.111755 42.395440 42.679252 42.963147 43.247033 43.530851 43.814491 44.097883
44.380896 44.663445 44.945385 45.226613 45.506969 45.786335 46.064534 46.341435
46.616846 46.890623 47.162561 47.432503 47.700236 47.965592 48.228348 48.488330
48.745309 48.999107 49.249491 49.496281 49.739246 49.978205 50.212933 50.443252
50.668944 50.889838 51.105725 51.316447 51.521805 51.721652 51.915807 52.104135
52.286471 52.462698 52.632666 52.796274 52.953392 53.103933 53.247786 53.384880
53.515120 53.638449 53.754791 53.864101 53.966316 54.061404 54.149315 54.230027
54.303501 54.369721 54.428661 54.480309 54.524647 54.561668 54.591360 54.613720
54.628741 54.636424 54.636765 54.629767 54.615432 54.593764 54.564772 54.528460
54.484843 54.433928 54.375739 54.310285 54.237599 54.157696 54.070618 53.976388
53.875060 53.766667 53.651275 53.528928 53.399708 53.263672 53.120917 52.971515
52.815581 52.653202 52.484512 52.309612 52.128655 51.941758 51.749092 51.550788
51.347034 51.137976 50.923816 50.704711 50.480876 50.252479 50.019744 49.782847
49.542017 49.297435 49.049334 48.797895 48.543354 48.285888 48.025729 47.763052
47.498082 47.230985 46.961980 46.691222 46.418918 46.145212 45.870298 45.594308
45.317421 45.039752 44.761466 44.482664 44.203494 43.924040 43.644433 43.364743
43.085084 42.805511 42.526119 42.246949 41.968081 41.689542 41.411395 41.133655
40.856370 40.579542 40.303205 40.027352 39.752004 39.477143 39.202777 38.928883
38.655456 38.382466 38.109900 37.837721 37.565909 37.294421 37.023230 36.752291
36.481571 36.211023 35.940609 35.670282 35.400000
35.777778 36.085376 36.393019 36.700750 37.008614 37.316651 37.624906 37.933411
38.242212 38.551334 38.860818 39.170682 39.480960 39.791663 40.102818 40.414424
40.726501 41.039034 41.352036 41.665477 41.979360 42.293639 42.608304 42.923296
43.238590 43.554108 43.869813 44.185608 44.501440 44.817194 45.132801 45.448127
45.763084 46.077520 46.391330 46.704344 47.016439 47.327427 47.637167 47.945455
48.252135 48.556987 48.859840 49.160460 49.458666 49.754211 50.046904 50.336491
50.622774 50.905493 51.184447 51.459374 51.730072 51.996282 52.257806 52.514390
52.765842 53.011919 53.252438 53.487168 53.715940 53.938538 54.154808 54.364553
54.567634 54.763875 54.953154 55.135316 55.310257 55.477843 55.637987 55.790577
55.935541 56.072786 56.202258 56.323880 56.437611 56.543392 56.641192 56.730965
56.812691 56.886337 56.951888 57.009320 57.058625 57.099788 57.132804 57.157663
57.174365 57.182904 57.183282 57.175500 57.159558 57.135465 57.103224 57.062846
57.014338 56.957718 56.892997 56.820202 56.739347 56.650470 56.553593 56.448764
56.336016 56.215410 56.086991 55.950836 55.807002 55.655586 55.496659 55.330337
55.156709 54.975912 54.788050 54.593282 54.391732 54.183577 53.968958 53.748075
53.521083 53.288201 53.049599 52.805510 52.556120 52.301671 52.042360 51.778441
51.510114 51.237640 50.961223 50.681125 50.397550 50.110759 49.820951 49.528382
49.233245 48.935788 48.636192 48.334695 48.031466 47.726729 47.420638 47.113402
46.805160 46.496102 46.186351 45.876079 45.565391 45.254441 44.943316 44.632150
44.321014 44.010022 43.699228 43.388728 43.078560 42.768803 42.459478 42.150646
41.842317 41.534535 41.227295 40.920628 40.614519 40.308983 40.003994 39.699557
39.395637 39.092226 38.789284 38.486792 38.184705 37.882995 37.581613 37.280524
36.979676 36.679027 36.378527 36.078127 35.777778
36.155556 36.493970 36.832433 37.170998 37.509710 37.848620 38.187770 38.527210
38.866974 39.207110 39.547644 39.888618 40.230049 40.571974 40.914396 41.257346
41.600814 41.944821 42.289343 42.634389 42.979921 43.325933 43.672371 44.019215
44.366392 44.713868 45.061549 45.409384 45.757259 46.105105 46.452789 46.800221
47.147246 47.493758 47.839578 48.184582 48.528570 48.871397 49.212847 49.552754
49.890883 50.227053 50.561012 50.892564 51.221442 51.547437 51.870273 52.189731
52.505526 52.817434 53.125165 53.428494 53.727130 54.020850 54.309369 54.592468
54.869870 55.141366 55.406694 55.665654 55.918002 56.163555 56.402086 56.633431
56.857385 57.073803 57.282503 57.483360 57.676216 57.860966 58.037476 58.205661
58.365408 58.516650 58.659296 58.793295 58.918574 59.035097 59.142807 59.241680
59.331673 59.412770 59.484941 59.548175 59.602453 59.647770 59.684111 59.711477
59.729858 59.739257 59.739671 59.731101 59.713552 59.687026 59.651533 59.607076
59.553672 59.491328 59.420067 59.339901 59.250864 59.152974 59.046275 58.930796
58.806595 58.673711 58.532219 58.382173 58.223668 58.056770 57.881597 57.698234
57.506821 57.307462 57.100320 56.885520 56.663248 56.433650 56.196934 55.953266
55.702875 55.445945 55.182726 54.913415 54.638279 54.357529 54.071444 53.780243
53.484214 53.183583 52.878641 52.569616 52.256800 51.940416 51.620754 51.298032
50.972530 50.644456 50.314081 49.981599 49.647267 49.311265 48.973831 48.635130
48.295380 47.954728 47.613374 47.271442 46.929114 46.586494 46.243741 45.900942
45.558233 45.215682 44.873404 44.531449 44.189913 43.848826 43.508265 43.168246
42.828826 42.490006 42.151826 41.814274 41.477375 41.141103 40.805470 40.470440
40.136010 39.802138 39.468807 39.135970 38.803600 38.471642 38.140062 37.808803
37.477821 37.147058 36.816464 36.485981 36.155556
36.533333 36.902575 37.271874 37.641283 38.010860 38.380654 38.750723 39.121109
39.491867 39.863031 40.234653 40.606756 40.979386 41.352556 41.726303 42.100627
42.475556 42.851074 43.227198 43.603897 43.981173 44.358977 44.737298 45.116065
45.495253 45.874770 46.254571 46.634544 47.014624 47.394676 47.774616 48.154284
48.533576 48.912309 49.290355 49.667509 50.043623 50.418469 50.791876 51.163595
51.533436 51.901131 52.266471 52.629171 52.989007 53.345679 53.698950 54.048510
54.394113 54.735442 55.072247 55.404208 55.731075 56.052530 56.368327 56.678157
56.981780 57.278900 57.569290 57.852670 58.128829 58.397508 58.658514 58.911611
59.156628 59.393355 59.621642 59.841304 60.052218 60.254224 60.447219 60.631070
60.805697 60.970991 61.126889 61.273304 61.410192 61.537485 61.655151 61.763141
61.861434 61.949993 62.028806 62.097849 62.157114 62.206586 62.246263 62.276134
62.296200 62.306458 62.306907 62.297550 62.278388 62.249428 62.210672 62.162133
62.103817 62.035741 61.957916 61.870369 61.773115 61.666193 61.549626 61.423469
61.287753 61.142550 60.987908 60.823917 60.650639 60.468189 60.276649 60.076155
59.866811 59.648781 59.422190 59.187227 58.944042 58.692849 58.433820 58.167196
57.893170 57.612004 57.323912 57.029175 56.728023 56.420755 56.107611 55.788904
55.464880 55.135861 54.802098 54.463914 54.121559 53.775354 53.425544 53.072443
52.716289 52.357384 51.995952 51.632282 51.266581 50.899123 50.530096 50.159752
49.788261 49.415854 49.042679 48.668944 48.294775 47.920358 47.545796 47.171252
46.796807 46.422600 46.048693 45.675201 45.302167 44.929682 44.557773 44.186511
43.815902 43.446000 43.076796 42.708324 42.340564 41.973531 41.607194 41.241552
40.876564 40.512216 40.148459 39.785266 39.422582 39.060370 38.698569 38.337133
37.976000 37.615116 37.254417 36.893844 36.533333
36.911111 37.311194 37.711337 38.111607 38.512059 38.912759 39.313756 39.715115
40.116879 40.519106 40.921831 41.325108 41.728958 42.133429 42.538528 42.944294
43.350718 43.757828 44.165599 44.574045 44.983122 45.392829 45.803102 46.213921
46.625202 47.036907 47.448927 47.861203 48.273603 48.686046 49.098374 49.510484
49.922192 50.333371 50.743812 51.153363 51.561789 51.968916 52.374484 52.778295
53.180068 53.579584 53.976539 54.370697 54.761735 55.149401 55.533360 55.913346
56.289014 56.660091 57.026227 57.387145 57.742496 58.092003 58.435324 58.772190
59.102268 59.425300 59.740972 60.049040 60.349210 60.641261 60.924920 61.199990
61.466227 61.723456 61.971462 62.210098 62.439179 62.658580 62.868148 63.067783
63.257357 63.436795 63.605994 63.764898 63.913429 64.051546 64.179190 64.296337
64.402942 64.498991 64.584454 64.659323 64.723578 64.777218 64.820229 64.852613
64.874363 64.885480 64.885965 64.875817 64.855041 64.823639 64.781621 64.728987
64.665755 64.591928 64.507531 64.412573 64.307089 64.191094 64.064637 63.927744
63.780480 63.622884 63.455042 63.277010 63.088895 62.890773 62.682779 62.465011
62.237629 62.000757 61.754585 61.499263 61.235009 60.961999 60.680480 60.390653
60.092792 59.787120 59.473936 59.153484 58.826082 58.491989 58.151542 57.805010
57.452740 57.095008 56.732167 56.364495 55.992346 55.615992 55.235784 54.851985
54.464936 54.074888 53.682168 53.287011 52.889725 52.490527 52.089705 51.687453
51.284037 50.879628 50.474465 50.068699 49.662543 49.256120 48.849620 48.443143
48.036850 47.630819 47.225187 46.820009 46.415397 46.011385 45.608061 45.205442
44.803592 44.402510 44.002240 43.602767 43.204114 42.806251 42.409185 42.012875
41.617312 41.222444 40.828248 40.434664 40.041658 39.649164 39.257136 38.865505
38.474215 38.083197 37.692387 37.301714 36.911111
37.288889 37.719822 38.150825 38.581963 39.013309 39.444921 39.876872 40.309214
40.742016 41.175320 41.609190 42.043657 42.478779 42.914574 43.351090 43.788328
44.226326 44.665069 45.104581 45.544827 45.985815 46.427490 46.869843 47.312794
47.756316 48.200305 48.644711 49.089405 49.534313 49.979280 50.424208 50.868912
51.313269 51.757068 52.200157 52.642297 53.083312 53.522933 53.960958 54.397094
54.831113 55.262698 55.691599 56.117475 56.540060 56.958994 57.373993 57.784686
58.190776 58.591885 58.987709 59.377865 59.762051 60.139887 60.511072 60.875239
61.232097 61.581292 61.922549 62.255537 62.579999 62.895629 63.202196 63.499422
63.787102 64.064991 64.332912 64.590652 64.838065 65.074968 65.301244 65.516744
65.721375 65.915018 66.097604 66.269039 66.429277 66.578246 66.715916 66.842235
66.957186 67.060733 67.152867 67.233565 67.302824 67.360631 67.406985 67.441880
67.465317 67.477294 67.477812 67.466874 67.444480 67.410637 67.365345 67.308616
67.240452 67.160872 67.069879 66.967502 66.853752 66.728668 66.592270 66.444615
66.285735 66.115705 65.934574 65.742441 65.539375 65.325502 65.100915 64.865767
64.620179 64.364337 64.098387 63.822549 63.537000 63.241990 62.937725 62.624487
62.302508 61.972101 61.633520 61.287102 60.933124 60.571943 60.203850 59.829218
59.448347 59.061622 58.669345 58.271904 57.869601 57.462820 57.051858 56.637090
56.218800 55.797350 55.373008 54.946119 54.516930 54.085765 53.652848 53.218479
52.782857 52.346256 51.908849 51.470882 51.032502 50.593924 50.155272 49.716731
49.278399 48.840433 48.402906 47.965948 47.529608 47.093991 46.659123 46.225084
45.791881 45.359570 44.928140 44.497626 44.068000 43.639279 43.211420 42.784422
42.358231 41.932828 41.508152 41.084169 40.660810 40.238028 39.815750 39.393919
38.972457 38.551300 38.130368 37.709591 37.288889
37.666667 38.128461 38.590330 39.052352 39.514597 39.977144 40.440055 40.903409
41.367257 41.831675 42.296703 42.762409 43.228823 43.696002 44.163961 44.632747
45.102355 45.572821 46.044121 46.516274 46.989235 47.463004 47.937513 48.412743
48.888599 49.365039 49.841943 50.319245 50.796794 51.274499 51.752179 52.229715
52.706897 53.183577 53.659513 54.134529 54.608351 55.080776 55.551500 56.020291
56.486818 56.950821 57.411946 57.869909 58.324332 58.774913 59.221255 59.663042
60.099864 60.531394 60.957217 61.376999 61.790327 62.196868 62.596216 62.988048
63.371968 63.747669 64.114776 64.473001 64.821995 65.161495 65.491183 65.810823
66.120132 66.418906 66.706897 66.983934 67.249804 67.504369 67.747453 67.978947
68.198709 68.406658 68.602682 68.786726 68.958705 69.118582 69.266296 69.401828
69.525133 69.636204 69.735011 69.821554 69.895816 69.957799 70.007494 70.044904
70.070025 70.082862 70.083414 70.071682 70.047671 70.011381 69.962818 69.901983
69.828888 69.743535 69.645944 69.536119 69.414094 69.279879 69.133522 68.975046
68.804516 68.621972 68.427501 68.221164 68.003075 67.773318 67.532039 67.279350
67.015430 66.740421 66.454540 66.157958 65.850930 65.533659 65.206435 64.869495
64.523160 64.167695 63.803454 63.430727 63.049890 62.661256 62.265221 61.862109
61.452333 61.036225 60.614203 60.186601 59.753837 59.316240 58.874223 58.428104
57.978283 57.525061 57.068822 56.609847 56.148497 55.685030 55.219781 54.752981
54.284938 53.815855 53.346010 52.875576 52.404799 51.933826 51.462871 50.992051
50.521550 50.051457 49.581925 49.113018 48.644860 48.177489 47.711002 47.245416
46.780801 46.317152 45.854516 45.392871 44.932240 44.472585 44.013909 43.556161
43.099327 42.643341 42.188175 41.733755 41.280037 40.826941 40.374410 39.922360
39.470724 39.019416 38.568361 38.117471 37.666667
38.044444 38.537106 39.029852 39.522763 40.015924 40.509409 41.003305 41.497675
41.992603 42.488144 42.984373 43.481333 43.979093 44.477679 44.977150 45.477514
45.978818 46.481050 46.984241 47.488357 47.993412 48.499347 49.006155 49.513752
50.022107 50.531108 51.040699 51.550738 52.061142 52.571736 53.082409 53.592953
54.103227 54.612988 55.122065 55.630181 56.137131 56.642609 57.146376 57.648094
58.147495 58.644211 59.137947 59.628307 60.114973 60.597526 61.075628 61.548843
62.016820 62.479110 62.935354 63.385100 63.827985 64.263564 64.691477 65.111291
65.522658 65.925163 66.318480 66.702216 67.076072 67.439688 67.792793 68.135063
68.466262 68.786103 69.094388 69.390870 69.675385 69.947730 70.207773 70.455349
70.690362 70.912679 71.122234 71.318926 71.502712 71.673521 71.831327 71.976080