# vtk DataFile Version 3.0
Steady-state temperature (Jacobi)
ASCII
DATASET STRUCTURED_POINTS
DIMENSIONS 181 181 1
ORIGIN 0.0 0.0 0.0
SPACING 0.05 0.05 1.0
POINT_DATA 32761
SCALARS Temperature float 1
LOOKUP_TABLE default
32.000000 32.000000 32.000000 32.000000 32.000000 32.000000 32.000000 32.000000
32.000000 32.000000 32.000000 32.000000 32.000000 32.000000 32.000000 32.000000
32.000000 32.000000 32.000000 32.000000 32.000000 32.000000 32.000000 32.000000
32.000000 32.000000 32.000000 32.000000 32.000000 32.000000 32.000000 32.000000
32.000000 32.000000 32.000000 32.000000 32.000000 32.000000 32.000000 32.000000
32.000000 32.000000 32.000000 32.000000 32.000000 32.000000 32.000000 32.000000
32.000000 32.000000 32.000000 32.000000 32.000000 32.000000 32.000000 32.000000
32.000000 32.000000 32.000000 32.000000 32.000000 32.000000 32.000000 32.000000
32.000000 32.000000 32.000000 32.000000 32.000000 32.000000 32.000000 32.000000
32.000000 32.000000 32.000000 32.000000 32.000000 32.000000 32.000000 32.000000
32.000000 32.000000 32.000000 32.000000 32.000000 32.000000 32.000000 32.000000
32.000000 32.000000 32.000000 32.000000 32.000000 32.000000 32.000000 32.000000
32.000000 32.000000 32.000000 32.000000 32.000000 32.000000 32.000000 32.000000
32.000000 32.000000 32.000000 32.000000 32.000000 32.000000 32.000000 32.000000
32.000000 32.000000 32.000000 32.000000 32.000000 32.000000 32.000000 32.000000
32.000000 32.000000 32.000000 32.000000 32.000000 32.000000 32.000000 32.000000
32.000000 32.000000 32.000000 32.000000 32.000000 32.000000 32.000000 32.000000
32.000000 32.000000 32.000000 32.000000 32.000000 32.000000 32.000000 32.000000
32.000000 32.000000 32.000000 32.000000 32.000000 32.000000 32.000000 32.000000
32.000000 32.000000 32.000000 32.000000 32.000000 32.000000 32.000000 32.000000
32.000000 32.000000 32.000000 32.000000 32.000000 32.000000 32.000000 32.000000
32.000000 32.000000 32.000000 32.000000 32.000000 32.000000 32.000000 32.000000
32.000000 32.000000 32.000000 32.000000 32.000000
32.377778 32.373620 32.369494 32.365438 32.361477 32.357654 32.353989 32.350530
32.347289 32.344319 32.341625 32.339265 32.337235 32.335598 32.334343 32.333535
32.333154 32.333270 32.333854 32.334979 32.336607 32.338813 32.341550 32.344896
32.348795 32.353326 32.358422 32.364166 32.370481 32.377450 32.384987 32.393176
32.401922 32.411309 32.421232 32.431777 32.442830 32.454475 32.466591 32.479262
32.492360 32.505968 32.519950 32.534389 32.549144 32.564296 32.579700 32.595437
32.611357 32.627539 32.643833 32.660316 32.676836 32.693472 32.710069 32.726706
32.743231 32.759720 32.776025 32.792220 32.808162 32.823923 32.839366 32.854562
32.869379 32.883886 32.897960 32.911667 32.924891 32.937698 32.949978 32.961795
32.973050 32.983801 32.993958 33.003577 33.012578 33.021010 33.028805 33.036006
33.042555 33.048489 33.053761 33.058402 33.062373 33.065698 33.068351 33.070348
33.071673 33.072332 33.072323 33.071643 33.070298 33.068281 33.065606 33.062259
33.058265 33.053602 33.048305 33.042345 33.035768 33.028538 33.020713 33.012248
33.003212 32.993557 32.983360 32.972568 32.961269 32.949405 32.937074 32.924214
32.910933 32.897165 32.883028 32.868453 32.853565 32.838294 32.822771 32.806926
32.790896 32.774608 32.758206 32.741615 32.724984 32.708236 32.691522 32.674766
32.658120 32.641507 32.625079 32.608757 32.592694 32.576810 32.561254 32.545946
32.531031 32.516430 32.502282 32.488506 32.475237 32.462393 32.450103 32.438283
32.427054 32.416334 32.406236 32.396676 32.387759 32.379402 32.371699 32.364570
32.358100 32.352207 32.346969 32.342304 32.338280 32.334818 32.331976 32.329678
32.327971 32.326781 32.326147 32.325998 32.326363 32.327174 32.328452 32.330132
32.332228 32.334676 32.337484 32.340591 32.343997 32.347648 32.351534 32.355605
32.359846 32.364212 32.368681 32.373212 32.377778
32.755556 32.747260 32.739035 32.730936 32.723047 32.715411 32.708120 32.701206
32.694771 32.688831 32.683497 32.678772 32.674776 32.671493 32.669053 32.667424
32.666741 32.666957 32.668214 32.670445 32.673798 32.678189 32.683770 32.690439
32.698352 32.707388 32.717706 32.729167 32.741931 32.755840 32.771058 32.787406
32.805050 32.823793 32.843801 32.864859 32.887133 32.910391 32.934800 32.960110
32.986488 33.013670 33.041822 33.070667 33.100368 33.130640 33.161643 33.193082
33.225118 33.257449 33.290233 33.323166 33.356403 33.389638 33.423027 33.456266
33.489505 33.522447 33.555241 33.587595 33.619656 33.651142 33.682198 33.712553
33.742348 33.771326 33.799625 33.827002 33.853592 33.879169 33.903860 33.927459
33.950086 33.971554 33.991974 34.011181 34.029275 34.046112 34.061781 34.076158
34.089323 34.101171 34.111768 34.121031 34.129014 34.135652 34.140985 34.144972
34.147634 34.148951 34.148931 34.147574 34.144871 34.140844 34.135468 34.128786
34.120759 34.111449 34.100802 34.088903 34.075683 34.061248 34.045517 34.028616
34.010452 33.991172 33.970673 33.949122 33.926406 33.902712 33.877921 33.852237
33.825534 33.798036 33.769610 33.740497 33.710559 33.680054 33.648839 33.617185
33.584947 33.552407 33.519419 33.486274 33.452821 33.419360 33.385740 33.352262
33.318775 33.285582 33.252529 33.219920 33.187597 33.155862 33.124555 33.093972
33.063952 33.034782 33.006299 32.978780 32.952060 32.926405 32.901648 32.878040
32.855414 32.834006 32.813649 32.794560 32.776573 32.759888 32.744341 32.730111
32.717036 32.705278 32.694676 32.685372 32.677209 32.670309 32.664519 32.659945
32.656433 32.654073 32.652717 32.652435 32.653086 32.654721 32.657207 32.660578
32.664706 32.669610 32.675169 32.681388 32.688152 32.695452 32.703183 32.711320
32.719768 32.728490 32.737399 32.746446 32.755556
33.133333 33.120947 33.108656 33.096575 33.084781 33.073404 33.062501 33.052218
33.042592 33.033783 33.025804 33.018831 33.012854 33.008058 33.004412 33.002111
33.001099 33.001583 33.003477 33.006999 33.012037 33.018817 33.027197 33.037411
33.049289 33.063071 33.078558 33.095994 33.115152 33.136279 33.159120 33.183922
33.210405 33.238816 33.268847 33.300747 33.334179 33.369395 33.406031 33.444338
33.483932 33.525058 33.567314 33.610944 33.655527 33.701304 33.747839 33.795373
33.843458 33.892331 33.941538 33.991312 34.041197 34.091423 34.141533 34.191756
34.241639 34.291409 34.340620 34.389495 34.437603 34.485162 34.531757 34.577602
34.622301 34.666062 34.708512 34.749853 34.789735 34.828353 34.865384 34.901012
34.934943 34.967351 34.997971 35.026963 35.054092 35.079504 35.102995 35.124694
35.144429 35.162309 35.178194 35.192174 35.204138 35.214156 35.222149 35.228165
35.232155 35.234143 35.234113 35.232065 35.228014 35.221937 35.213880 35.203797
35.191765 35.177715 35.161756 35.143798 35.123981 35.102195 35.078612 35.053102
35.025869 34.996767 34.966030 34.933497 34.899433 34.863663 34.826482 34.787704
34.747652 34.706130 34.663489 34.619525 34.574612 34.528541 34.481707 34.433896
34.385523 34.336370 34.286867 34.236793 34.186590 34.136033 34.085575 34.034987
33.984727 33.934562 33.884952 33.835661 33.787146 33.739169 33.692178 33.645934
33.600873 33.556755 33.514003 33.472371 33.432265 33.393441 33.356282 33.320541
33.286582 33.254157 33.223603 33.194671 33.167676 33.142368 33.119034 33.097427
33.077804 33.059921 33.044009 33.029825 33.017572 33.007013 32.998322 32.991266
32.985992 32.982276 32.980235 32.979652 32.980620 32.982930 32.986647 32.991575
32.997753 33.004995 33.013316 33.022542 33.032667 33.043528 33.055098 33.067226
33.079865 33.092880 33.106204 33.119717 33.133333
33.511111 33.494694 33.478417 33.462396 33.446795 33.431704 33.417308 33.403669
33.390992 33.379312 33.368852 33.359616 33.351844 33.345510 33.340868 33.337860
33.336755 33.337459 33.340255 33.345013 33.352027 33.361131 33.372629 33.386317
33.402507 33.420958 33.441989 33.465320 33.491274 33.519533 33.550426 33.583595
33.619371 33.657360 33.697895 33.740543 33.785639 33.832717 33.882108 33.933315
33.986669 34.041643 34.098565 34.156882 34.216919 34.278103 34.340755 34.404284
34.469007 34.534321 34.600541 34.667056 34.734175 34.801288 34.868699 34.935802
35.002897 35.069387 35.135567 35.200855 35.265543 35.329065 35.391709 35.452934
35.513020 35.571454 35.628510 35.683703 35.737300 35.788850 35.838608 35.886161
35.931749 35.974998 36.016131 36.054816 36.091256 36.125160 36.156711 36.185658
36.212161 36.236011 36.257342 36.275987 36.292053 36.305414 36.316147 36.324170
36.329527 36.332178 36.332138 36.329407 36.323969 36.315865 36.305047 36.291599
36.275443 36.256704 36.235274 36.211320 36.184708 36.155645 36.123972 36.089938
36.053359 36.014527 35.973237 35.929822 35.884057 35.836315 35.786356 35.734592
35.680769 35.625335 35.568024 35.509320 35.448948 35.387422 35.324459 35.260602
35.195561 35.129903 35.063333 34.996436 34.928915 34.861367 34.793492 34.725897
34.658276 34.591241 34.524483 34.458612 34.393315 34.329196 34.265937 34.204131
34.143456 34.084489 34.026904 33.971257 33.917221 33.865323 33.815236 33.767459
33.721661 33.678312 33.637080 33.598399 33.561938 33.528098 33.496547 33.467648
33.441074 33.417150 33.395552 33.376567 33.359878 33.345732 33.333819 33.324350
33.317022 33.312009 33.309017 33.308185 33.309231 33.312257 33.316993 33.323510
33.331549 33.341149 33.352068 33.364311 33.377654 33.392072 33.407358 33.423460
33.440189 33.457466 33.475122 33.493053 33.511111
33.888889 33.868533 33.848339 33.828496 33.809135 33.790474 33.772610 33.755787
33.740067 33.725717 33.712764 33.701498 33.691904 33.684296 33.678617 33.675199
33.673946 33.675203 33.678832 33.685194 33.694105 33.705939 33.720465 33.738070
33.758475 33.782075 33.808545 33.838287 33.870926 33.906872 33.945701 33.987826
34.032777 34.080968 34.131883 34.185938 34.242572 34.302199 34.364217 34.429040
34.496026 34.565586 34.637043 34.710805 34.786167 34.863530 34.942166 35.022472
35.103700 35.186243 35.269341 35.353381 35.437599 35.522377 35.606951 35.691700
35.775866 35.859824 35.942831 36.025256 36.106378 36.186559 36.265105 36.342371
36.417697 36.491428 36.562941 36.632571 36.699737 36.764760 36.827103 36.887073
36.944181 36.998715 37.050233 37.099004 37.144638 37.187376 37.226880 37.263365
37.296544 37.326601 37.353303 37.376799 37.396908 37.413744 37.427177 37.437285
37.443990 37.447331 37.447282 37.443841 37.437035 37.426824 37.413285 37.396340
37.376119 37.352505 37.325681 37.295493 37.262178 37.225548 37.185891 37.142990
37.097184 37.048229 36.996515 36.941773 36.884444 36.824237 36.761643 36.696353
36.628905 36.558974 36.487142 36.413074 36.337391 36.259747 36.180803 36.100203
36.018640 35.935752 35.852258 35.767792 35.683093 35.597789 35.512635 35.427254
35.342409 35.257719 35.173948 35.090710 35.008764 34.927720 34.848325 34.770184
34.694026 34.619451 34.547166 34.476765 34.408926 34.343241 34.280354 34.219852
34.162342 34.107412 34.055626 34.006570 33.960766 33.917801 33.878152 33.841406
33.807995 33.777511 33.750335 33.726068 33.705043 33.686866 33.671825 33.659535
33.650237 33.643556 33.639688 33.638272 33.639458 33.642899 33.648704 33.656542
33.666479 33.678202 33.691738 33.706794 33.723358 33.741158 33.760147 33.780075
33.800860 33.822277 33.844212 33.866464 33.888889
34.266667 34.242473 34.218492 34.194899 34.171940 34.149754 34.128619 34.108632
34.090101 34.073079 34.057903 34.044582 34.033477 34.024550 34.018186 34.014296
34.013287 34.015020 34.019920 34.027793 34.039084 34.053542 34.071626 34.093031
34.118226 34.146849 34.179380 34.215398 34.255392 34.298882 34.346362 34.397296
34.452180 34.510421 34.572518 34.637824 34.706836 34.778855 34.854378 34.932656
35.014182 35.098166 35.185095 35.274140 35.365783 35.459162 35.554755 35.651673
35.750388 35.849992 35.950952 36.052350 36.154644 36.256917 36.359620 36.461840
36.564024 36.665273 36.766027 36.865409 36.963852 37.060509 37.155806 37.248930
37.340299 37.429142 37.515868 37.599751 37.681186 37.759501 37.835073 37.907287
37.976498 38.042151 38.104577 38.163279 38.218564 38.269995 38.317846 38.361744
38.401929 38.438088 38.470423 38.498686 38.523035 38.543284 38.559549 38.571706
38.579824 38.583842 38.583783 38.579645 38.571405 38.559125 38.542734 38.522354
38.497870 38.469467 38.436984 38.400669 38.360321 38.316250 38.268214 38.216589
38.161097 38.102174 38.039513 37.973611 37.904133 37.831636 37.755763 37.677128
37.595353 37.511109 37.424001 37.334753 37.242955 37.149379 37.053605 36.956445
36.857472 36.757535 36.656197 36.554338 36.451514 36.348627 36.245229 36.142233
36.039186 35.937009 35.835242 35.734803 35.635228 35.537424 35.440920 35.346608
35.254010 35.163990 35.076068 34.991075 34.908525 34.829213 34.752648 34.679581
34.609518 34.543163 34.480021 34.420744 34.364837 34.312898 34.264434 34.219987
34.179067 34.142162 34.108785 34.079366 34.053427 34.031342 34.012641 33.997642
33.985888 33.977639 33.972454 33.970539 33.971469 33.975397 33.981915 33.991128
34.002649 34.016531 34.032410 34.050294 34.069842 34.091018 34.113508 34.137234
34.161907 34.187411 34.213487 34.239981 34.266667
34.644444 34.616550 34.588884 34.561716 34.535230 34.509733 34.485366 34.462471
34.441138 34.421745 34.404330 34.389301 34.376643 34.366793 34.359678 34.355762
34.354914 34.357620 34.363687 34.373624 34.387174 34.404863 34.426370 34.452237
34.482074 34.516439 34.554873 34.597943 34.645124 34.696988 34.752945 34.813571
34.878208 34.947436 35.020530 35.098072 35.179274 35.264716 35.353552 35.446357
35.542232 35.641747 35.743955 35.849418 35.957148 36.067702 36.180056 36.294759
36.410763 36.528609 36.647231 36.767163 36.887332 37.008266 37.128892 37.249732
37.369725 37.489385 37.607673 37.725096 37.840645 37.954818 38.066646 38.176618
38.283809 38.388699 38.490416 38.589424 38.684910 38.777322 38.865910 38.951102
39.032212 39.109645 39.182785 39.252005 39.316763 39.377396 39.433434 39.485178
39.532228 39.574843 39.612696 39.646000 39.674501 39.698360 39.717397 39.731720
39.741222 39.745956 39.745886 39.741013 39.731370 39.716903 39.697719 39.673708
39.645050 39.611582 39.573556 39.530760 39.483519 39.431573 39.375321 39.314460
39.249461 39.179984 39.106570 39.028846 38.947425 38.861904 38.772964 38.680179
38.584296 38.484867 38.382705 38.277342 38.169651 38.059151 37.946767 37.832006
37.715841 37.597769 37.478801 37.358428 37.237690 37.116072 36.994635 36.872856
36.751810 36.630968 36.511404 36.392585 36.275578 36.159841 36.046426 35.934783
35.825939 35.719339 35.615974 35.515282 35.418214 35.324203 35.234152 35.147488
35.065061 34.986296 34.911985 34.841550 34.775722 34.713923 34.656822 34.603842
34.555586 34.511482 34.472066 34.436774 34.406076 34.379416 34.357197 34.338879
34.324796 34.314424 34.308035 34.305119 34.305887 34.309851 34.317160 34.327348
34.340507 34.356195 34.374449 34.394855 34.417395 34.441685 34.467657 34.494957
34.523471 34.552879 34.583020 34.613610 34.644444
35.022222 34.990766 34.959597 34.928952 34.899164 34.870419 34.843093 34.817318
34.793507 34.771737 34.752459 34.735687 34.721908 34.711072 34.703696 34.699666
34.699527 34.703095 34.710942 34.722810 34.739294 34.760064 34.785734 34.815897
34.851182 34.891108 34.936316 34.986246 35.041550 35.101589 35.167022 35.237133
35.312584 35.392585 35.477797 35.567357 35.661926 35.760570 35.863946 35.971055
36.082550 36.197372 36.316167 36.437824 36.562981 36.690483 36.820958 36.953220
37.087886 37.223743 37.361403 37.499638 37.639050 37.778410 37.918310 38.057529
38.196654 38.334480 38.471588 38.606803 38.740696 38.872133 39.001676 39.128239
39.252374 39.373052 39.490811 39.604688 39.715201 39.821458 39.923958 40.021882
40.115704 40.204683 40.289262 40.368781 40.443648 40.513284 40.578056 40.637468
40.691841 40.740761 40.784498 40.822723 40.855650 40.883031 40.905022 40.921458
40.932434 40.937867 40.937787 40.932195 40.921059 40.904458 40.882299 40.854745
40.821639 40.783226 40.739292 40.690165 40.635575 40.575932 40.510916 40.441020
40.365877 40.286064 40.201172 40.111860 40.017684 39.919383 39.816482 39.709798
39.598832 39.484475 39.366206 39.244988 39.120282 38.993115 38.862936 38.730829
38.596230 38.460274 38.322389 38.183748 38.043772 37.903664 37.762836 37.622512
37.482098 37.342823 37.204087 37.067118 36.931305 36.797863 36.666174 36.537429
36.411000 36.288044 36.167927 36.051761 35.938903 35.830417 35.725653 35.625615
35.529647 35.438692 35.352089 35.270712 35.193900 35.122454 35.055714 34.994406
34.937874 34.886768 34.840440 34.799462 34.763194 34.732134 34.705654 34.684175
34.667085 34.654731 34.646521 34.642727 34.642779 34.646881 34.654484 34.665725
34.680084 34.697631 34.717876 34.740828 34.766028 34.793426 34.822598 34.853437
34.885556 34.918796 34.952810 34.987387 35.022222
35.400000 35.365164 35.330625 35.296736 35.263736 35.232028 35.201792 35.173476
35.147199 35.123451 35.102285 35.084231 35.069272 35.057975 35.050251 35.046699
35.047154 35.052247 35.061731 35.076264 35.095520 35.120179 35.149828 35.185169
35.225703 35.272147 35.323915 35.381737 35.444938 35.514257 35.588932 35.669705
35.755729 35.847749 35.944833 36.047724 36.155408 36.268627 36.386290 36.509132
36.635992 36.767597 36.902723 37.042088 37.184414 37.330409 37.478749 37.630131
37.783200 37.938642 38.095078 38.253185 38.411575 38.570914 38.729819 38.888946
39.046927 39.204412 39.360058 39.514508 39.666458 39.816543 39.963510 40.107981
40.248765 40.386472 40.519979 40.649879 40.775128 40.896296 41.012422 41.124052
41.230309 41.331710 41.427467 41.518061 41.602796 41.682108 41.755397 41.823048
41.884553 41.940246 41.989711 42.033220 42.070451 42.101614 42.126477 42.145182
42.157591 42.163773 42.163684 42.157323 42.144733 42.125844 42.100792 42.069435
42.032001 41.988281 41.938596 41.882671 41.820920 41.753010 41.679447 41.599843
41.514797 41.423874 41.327764 41.225990 41.119334 41.007280 40.890703 40.769055
40.643297 40.512856 40.378775 40.240462 40.099035 39.953885 39.806203 39.655364
39.502620 39.347337 39.190816 39.032415 38.873476 38.713348 38.553401 38.392977
38.233459 38.074183 37.916537 37.759845 37.605486 37.452776 37.303072 37.155679
37.011922 36.871097 36.734483 36.601368 36.472977 36.348587 36.229364 36.114577
36.005322 35.900862 35.802219 35.708651 35.621101 35.538827 35.462687 35.391943
35.327366 35.268225 35.215204 35.167579 35.125950 35.089603 35.059053 35.033602
35.013678 34.998604 34.988725 34.983386 34.982851 34.986491 34.994493 35.006254
35.021890 35.040827 35.063109 35.088200 35.116073 35.146229 35.178578 35.212660
35.248324 35.285154 35.322939 35.361310 35.400000
35.777778 35.739737 35.702061 35.665051 35.629128 35.594532 35.561736 35.530912
35.502582 35.476846 35.454274 35.434889 35.419304 35.407463 35.400017 35.396827
35.398580 35.405050 35.416956 35.433982 35.456874 35.485225 35.519802 35.560104
35.606920 35.659648 35.719093 35.784558 35.856858 35.935196 36.020396 36.111563
36.209523 36.313287 36.423681 36.539622 36.661933 36.789444 36.922970 37.061259
37.205117 37.353219 37.506359 37.663146 37.824363 37.988563 38.156517 38.326732
38.499969 38.674704 38.851685 39.029370 39.208496 39.387517 39.567161 39.745893
39.924430 40.101261 40.277097 40.450463 40.622061 40.790470 40.956378 41.118428
41.277297 41.431701 41.582301 41.727895 41.869125 42.004879 42.135773 42.260791
42.380519 42.494037 42.601897 42.703279 42.798693 42.887421 42.969920 43.045579
43.114798 43.177066 43.232722 43.281357 43.323242 43.358070 43.386037 43.406940
43.420898 43.427807 43.427709 43.420601 43.406443 43.385335 43.357159 43.322114
43.280006 43.231136 43.175236 43.112710 43.043219 42.967273 42.884468 42.795416
42.699658 42.597909 42.489659 42.375725 42.255555 42.130066 41.998670 41.862384
41.720588 41.574393 41.423156 41.268078 41.108496 40.945692 40.778989 40.609743
40.437263 40.262970 40.086163 39.908314 39.728713 39.548870 39.368067 39.187841
39.007462 38.828479 38.650153 38.474029 38.299359 38.127669 37.958200 37.792448
37.629642 37.471234 37.316442 37.166663 37.021104 36.881098 36.745840 36.616590
36.492536 36.374855 36.262729 36.157250 36.057597 35.964768 35.877943 35.798028
35.724203 35.657280 35.596447 35.542417 35.494390 35.452982 35.417409 35.388193
35.364565 35.346956 35.334620 35.327895 35.326063 35.329375 35.337141 35.349526
35.365876 35.386274 35.410102 35.437366 35.467487 35.500398 35.535563 35.572844
35.611752 35.652082 35.693395 35.735422 35.777778
36.155556 36.114535 36.073884 36.034040 35.995305 35.958174 35.922876 35.889965
35.859592 35.832364 35.808352 35.788209 35.771921 35.760189 35.752906 35.750815
35.753718 35.762390 35.776538 35.796970 35.823292 35.856339 35.895614 35.941975
35.994819 36.055023 36.121876 36.196270 36.277384 36.366121 36.461550 36.564579
36.674171 36.791235 36.914630 37.045260 37.181884 37.325401 37.474475 37.629993
37.790535 37.956976 38.127815 38.303915 38.483707 38.668041 38.855292 39.046294
39.239382 39.435374 39.632579 39.831802 40.031339 40.231985 40.432037 40.632282
40.831036 41.029075 41.224754 41.418836 41.609727 41.798183 41.982672 42.163938
42.340526 42.513167 42.680492 42.843214 43.000061 43.151721 43.297026 43.436635
43.569486 43.696203 43.815835 43.928964 44.034750 44.133723 44.225159 44.309528
44.386219 44.455638 44.517285 44.571494 44.617877 44.656690 44.687657 44.710950
44.726403 44.734103 44.733995 44.726077 44.710403 44.686887 44.655690 44.616640
44.570010 44.515545 44.453628 44.383927 44.306937 44.222251 44.130481 44.031151
43.924987 43.811455 43.691394 43.564220 43.430883 43.290756 43.144900 42.992654
42.835185 42.671803 42.503777 42.330395 42.153022 41.970927 41.785564 41.596187
41.404326 41.209225 41.012478 40.813319 40.613394 40.411928 40.210601 40.008630
39.807716 39.607064 39.408381 39.210861 39.016198 38.823574 38.634658 38.448616
38.267078 38.089195 37.916541 37.748256 37.585847 37.428440 37.277464 37.132036
36.993497 36.860956 36.735661 36.616713 36.505264 36.400410 36.303201 36.212733
36.129951 36.053958 35.985589 35.923958 35.869795 35.822224 35.781871 35.747878
35.720766 35.699702 35.685103 35.676162 35.673199 35.675437 35.683101 35.695448
35.712611 35.733888 35.759322 35.788253 35.820641 35.855873 35.893829 35.933943
35.976021 36.019551 36.064268 36.109713 36.155556
36.533333 36.489543 36.446198 36.403668 36.362468 36.322891 36.285515 36.250552
36.218640 36.189903 36.165035 36.144070 36.127752 36.116020 36.109664 36.108525
36.113432 36.124124 36.141467 36.165089 36.195893 36.233393 36.278518 36.330670
36.390799 36.458190 36.533810 36.616826 36.708217 36.807031 36.914253 37.028814
37.151700 37.281726 37.419877 37.564853 37.717633 37.876812 38.043356 38.215760
38.394978 38.579413 38.770005 38.965074 39.165544 39.369668 39.578353 39.789797
40.004891 40.221794 40.441383 40.661794 40.883889 41.105802 41.328382 41.549775
41.770820 41.989695 42.207227 42.421644 42.633764 42.841877 43.046791 43.246875
43.442925 43.633400 43.819081 43.998527 44.172499 44.339667 44.500762 44.654572
44.801795 44.941337 45.073854 45.198376 45.315509 45.424405 45.525612 45.618405
45.703264 45.779589 45.847783 45.907369 45.958668 46.001321 46.035565 46.061159
46.078247 46.086708 46.086590 46.077892 46.060565 46.034726 46.000232 45.957320
45.905753 45.845888 45.777401 45.700768 45.615583 45.522446 45.420874 45.311591
45.194045 45.069084 44.936099 44.796059 44.648306 44.493932 44.332236 44.164430
43.989779 43.809613 43.623168 43.431884 43.234978 43.033990 42.828122 42.619004
42.405827 42.190299 41.971601 41.751506 41.529184 41.306458 41.082489 40.859130
40.635532 40.413563 40.192362 39.973793 39.756981 39.543769 39.333267 39.127282
38.924908 38.727896 38.535325 38.348882 38.167627 37.993166 37.824549 37.663289
37.508422 37.361366 37.221145 37.089071 36.964162 36.847619 36.738458 36.637766
36.544560 36.459811 36.382543 36.313610 36.252049 36.198594 36.152301 36.113790
36.082135 36.057847 36.040024 36.029068 36.024110 36.025442 36.032232 36.044671
36.061966 36.084211 36.110655 36.141299 36.175441 36.212991 36.253301 36.296196
36.341083 36.387706 36.435533 36.484232 36.533333
36.911111 36.864816 36.818968 36.774092 36.730554 36.688950 36.649560 36.613048
36.579601 36.549946 36.524175 36.503071 36.486625 36.475673 36.470102 36.470793
36.477522 36.491215 36.511532 36.539436 36.574466 36.617619 36.668312 36.727566
36.794673 36.870675 36.954734 37.047909 37.149232 37.259771 37.378430 37.506278
37.642093 37.786942 37.939477 38.100760 38.269323 38.446215 38.629855 38.821280
39.018801 39.223438 39.433409 39.649714 39.870491 40.096718 40.326466 40.560695
40.797423 41.037594 41.279191 41.523142 41.767416 42.012924 42.257643 42.502472
42.745411 42.987347 43.226327 43.463229 43.696160 43.925988 44.150900 44.371754
44.586831 44.796974 45.000570 45.198446 45.389103 45.573346 45.749799 45.919235
46.080409 46.234053 46.379056 46.516100 46.644207 46.764004 46.874644 46.976687
47.069421 47.153326 47.227824 47.293311 47.349337 47.396205 47.433597 47.461718
47.480375 47.489672 47.489544 47.479991 47.461075 47.432691 47.395028 47.347881
47.291565 47.225777 47.150962 47.066723 46.973637 46.871222 46.760187 46.639971
46.511417 46.373897 46.228389 46.074206 45.912458 45.742411 45.565307 45.380373
45.188981 44.990326 44.785903 44.574884 44.358881 44.137047 43.911102 43.680185
43.446109 43.208004 42.967762 42.724503 42.480181 42.233909 41.987684 41.740610
41.494709 41.249071 41.005728 40.763753 40.525164 40.289020 40.057306 39.829063
39.606226 39.387816 39.175704 38.968892 38.769168 38.575517 38.389635 38.210490
38.039673 37.876139 37.721368 37.574303 37.436306 37.306314 37.185566 37.072997
36.969720 36.874674 36.788845 36.711181 36.642540 36.581885 36.529948 36.485711
36.449783 36.421172 36.400366 36.386403 36.379653 36.379190 36.385273 36.397015
36.414565 36.437084 36.464615 36.496369 36.532292 36.571646 36.614284 36.659527
36.707137 36.756499 36.807290 36.858962 36.911111
37.288889 37.240332 37.192305 37.145252 37.099783 37.056253 37.015344 36.977317
36.942925 36.912325 36.886337 36.865011 36.849226 36.838921 36.835028 36.837369
36.846925 36.863396 36.887806 36.919729 36.960224 37.008735 37.066352 37.132384
37.207946 37.292210 37.386309 37.489274 37.602252 37.724133 37.856069 37.996811
38.147511 38.306783 38.475771 38.652956 38.839473 39.033674 39.236678 39.446719
39.664895 39.889333 40.121108 40.358251 40.601815 40.849749 41.103083 41.359701
41.620611 41.883650 42.149808 42.416896 42.685883 42.954579 43.223937 43.491784
43.759060 44.023630 44.286427 44.545372 44.801389 45.052479 45.299556 45.540715
45.776861 46.006199 46.229619 46.445446 46.654552 46.855394 47.048815 47.233411
47.409990 47.577288 47.736067 47.885210 48.025422 48.155729 48.276770 48.387716
48.489128 48.580318 48.661761 48.732910 48.794143 48.845052 48.885912 48.916452
48.936839 48.946936 48.946799 48.936427 48.915762 48.884939 48.843789 48.792580
48.731036 48.659562 48.577778 48.486230 48.384440 48.273094 48.151628 48.020870
47.880178 47.730524 47.571200 47.403323 47.226127 47.040873 46.846752 46.645166
46.435269 46.218602 45.994293 45.764012 45.526868 45.284655 45.036465 44.784204
44.526953 44.266713 44.002557 43.736563 43.467797 43.198396 42.927417 42.657035
42.386296 42.117392 41.849354 41.584373 41.321460 41.062781 40.807331 40.557228
40.311445 40.072038 39.837958 39.611182 39.390635 39.178201 38.972785 38.776163
38.587222 38.407619 38.236227 38.074577 37.921532 37.778491 37.644310 37.520255
37.405182 37.300216 37.204221 37.118185 37.040981 36.973462 36.914518 36.864866
36.823421 36.790767 36.765849 36.749122 36.739566 36.737513 36.741983 36.753188
36.770194 36.793099 36.821019 36.853944 36.891045 36.932206 36.976661 37.024196
37.074106 37.126086 37.179501 37.233955 37.288889
37.666667 37.616150 37.566163 37.517322 37.470064 37.425087 37.382728 37.343765
37.308428 37.277566 37.251298 37.230541 37.215295 37.206538 37.204149 37.209158
37.221318 37.241707 37.269944 37.307150 37.352805 37.408065 37.472268 37.546600
37.630251 37.724430 37.828178 37.942718 38.066942 38.202079 38.346871 38.502549
38.667704 38.843563 39.028569 39.223938 39.427973 39.641872 39.863805 40.094949
40.333349 40.580159 40.833312 41.093935 41.359865 41.632201 41.908701 42.190439
42.475110 42.763765 43.054061 43.347026 43.640300 43.934895 44.228457 44.521982
44.813149 45.102942 45.389093 45.672579 45.951206 46.225944 46.494695 46.758418
47.015131 47.265781 47.508512 47.744257 47.971297 48.190543 48.400422 48.601814
48.793299 48.975714 49.147795 49.310327 49.462199 49.604133 49.735172 49.855962
49.965700 50.064943 50.153038 50.230445 50.296659 50.352033 50.396207 50.429420
50.451458 50.462440 50.462293 50.451018 50.428683 50.395168 50.350683 50.294989
50.228443 50.150689 50.062230 49.962604 49.852462 49.731244 49.599750 49.457334
49.304948 49.141870 48.969207 48.786171 48.594025 48.391929 48.181301 47.961258
47.733372 47.496728 47.253044 47.001384 46.743603 46.478750 46.208808 45.932815
45.652866 45.367992 45.080385 44.789067 44.496304 44.201114 43.905816 43.609416
43.314265 43.019354 42.727045 42.436310 42.149493 41.865549 41.586782 41.312123
41.043818 40.780772 40.525153 40.275838 40.034903 39.801197 39.576685 39.360195
39.153569 38.955614 38.768040 38.589639 38.421981 38.263847 38.116663 37.979204
37.852750 37.736077 37.630315 37.534249 37.448861 37.372950 37.307352 37.250886
37.204245 37.166276 37.137532 37.116893 37.104777 37.100105 37.103163 37.112917
37.129530 37.152019 37.180425 37.213824 37.252141 37.294515 37.340763 37.390090
37.442209 37.496398 37.552273 37.609188 37.666667
38.044444 37.992242 37.940660 37.890220 37.841633 37.795318 37.752073 37.712206
37.676595 37.645432 37.619668 37.599375 37.585569 37.578197 37.578335 37.585795
37.601710 37.625749 37.659095 37.701273 37.753503 37.815163 37.887507 37.969756
38.063191 38.166875 38.282108 38.407792 38.545237 38.693183 38.852945 39.023100
39.204958 39.396939 39.600340 39.813426 40.037477 40.270610 40.514081 40.765868
41.027200 41.295928 41.573251 41.856905 42.148060 42.444355 42.746929 43.053346
43.364714 43.678544 43.995918 44.314316 44.634798 44.954840 45.275483 45.594224
45.912092 46.226630 46.538858 46.846390 47.150239 47.448112 47.741017 48.026776
48.306390 48.577810 48.842028 49.097139 49.344118 49.581215 49.809379 50.027022
50.235058 50.432064 50.618906 50.794327 50.959132 51.112231 51.254355 51.384578