# vtk DataFile Version 3.0
Steady-state temperature (Jacobi)
ASCII
DATASET STRUCTURED_POINTS
DIMENSIONS 181 181 1
ORIGIN 0.0 0.0 0.0
SPACING 0.05 0.05 1.0
POINT_DATA 32761
SCALARS Temperature float 1
LOOKUP_TABLE default
32.000000 32.000000 32.000000 32.000000 32.000000 32.000000 32.000000 32.000000
32.000000 32.000000 32.000000 32.000000 32.000000 32.000000 32.000000 32.000000
32.000000 32.000000 32.000000 32.000000 32.000000 32.000000 32.000000 32.000000
32.000000 32.000000 32.000000 32.000000 32.000000 32.000000 32.000000 32.000000
32.000000 32.000000 32.000000 32.000000 32.000000 32.000000 32.000000 32.000000
32.000000 32.000000 32.000000 32.000000 32.000000 32.000000 32.000000 32.000000
32.000000 32.000000 32.000000 32.000000 32.000000 32.000000 32.000000 32.000000
32.000000 32.000000 32.000000 32.000000 32.000000 32.000000 32.000000 32.000000
32.000000 32.000000 32.000000 32.000000 32.000000 32.000000 32.000000 32.000000
32.000000 32.000000 32.000000 32.000000 32.000000 32.000000 32.000000 32.000000
32.000000 32.000000 32.000000 32.000000 32.000000 32.000000 32.000000 32.000000
32.000000 32.000000 32.000000 32.000000 32.000000 32.000000 32.000000 32.000000
32.000000 32.000000 32.000000 32.000000 32.000000 32.000000 32.000000 32.000000
32.000000 32.000000 32.000000 32.000000 32.000000 32.000000 32.000000 32.000000
32.000000 32.000000 32.000000 32.000000 32.000000 32.000000 32.000000 32.000000
32.000000 32.000000 32.000000 32.000000 32.000000 32.000000 32.000000 32.000000
32.000000 32.000000 32.000000 32.000000 32.000000 32.000000 32.000000 32.000000
32.000000 32.000000 32.000000 32.000000 32.000000 32.000000 32.000000 32.000000
32.000000 32.000000 32.000000 32.000000 32.000000 32.000000 32.000000 32.000000
32.000000 32.000000 32.000000 32.000000 32.000000 32.000000 32.000000 32.000000
32.000000 32.000000 32.000000 32.000000 32.000000 32.000000 32.000000 32.000000
32.000000 32.000000 32.000000 32.000000 32.000000 32.000000 32.000000 32.000000
32.000000 32.000000 32.000000 32.000000 32.000000
32.377778 32.400732 32.423700 32.446695 32.469728 32.492815 32.515965 32.539195
32.562512 32.585933 32.609463 32.633119 32.656904 32.680835 32.704913 32.729154
32.753556 32.778136 32.802887 32.827827 32.852945 32.878258 32.903753 32.929444
32.955316 32.981383 33.007624 33.034052 33.060645 33.087411 33.114326 33.141397
33.168596 33.195928 33.223362 33.250902 33.278512 33.306195 33.333913 33.361665
33.389413 33.417153 33.444844 33.472482 33.500023 33.527461 33.554751 33.581886
33.608821 33.635547 33.662017 33.688223 33.714119 33.739694 33.764904 33.789739
33.814154 33.838139 33.861652 33.884683 33.907191 33.929168 33.950575 33.971404
33.991619 34.011214 34.030154 34.048435 34.066026 34.082923 34.099098 34.114548
34.129249 34.143198 34.156374 34.168776 34.180385 34.191201 34.201208 34.210407
34.218783 34.226339 34.233063 34.238956 34.244010 34.248225 34.251597 34.254126
34.255808 34.256644 34.256633 34.255774 34.254069 34.251518 34.248124 34.243886
34.238811 34.232898 34.226154 34.218579 34.210185 34.200969 34.190946 34.180116
34.168493 34.156080 34.142894 34.128937 34.114231 34.098777 34.082602 34.065706
34.048119 34.029846 34.010916 33.991335 33.971137 33.950330 33.928949 33.907002
33.884528 33.861537 33.838070 33.814135 33.789777 33.765005 33.739864 33.714364
33.688552 33.662437 33.636065 33.609446 33.582628 33.555617 33.528461 33.501167
33.473780 33.446307 33.418791 33.391238 33.363689 33.336147 33.308652 33.281205
33.253845 33.226568 33.199411 33.172370 33.145478 33.118728 33.092150 33.065737
33.039513 33.013471 32.987631 32.961984 32.936548 32.911310 32.886287 32.861463
32.836853 32.812439 32.788232 32.764215 32.740394 32.716752 32.693292 32.669997
32.646867 32.623884 32.601046 32.578334 32.555744 32.533258 32.510869 32.488560
32.466321 32.444136 32.421994 32.399879 32.377778
32.755556 32.801475 32.847421 32.893419 32.939498 32.985679 33.031994 33.078460
33.125111 33.171957 33.219035 33.266352 33.313942 33.361809 33.409987 33.458472
33.507301 33.556463 33.605993 33.655875 33.706140 33.756769 33.807791 33.859177
33.910956 33.963093 34.015612 34.068472 34.121695 34.175233 34.229103 34.283252
34.337692 34.392364 34.447277 34.502364 34.557631 34.613005 34.668489 34.724004
34.779549 34.835040 34.890473 34.945760 35.000892 35.055780 35.110411 35.164694
35.218614 35.272078 35.325069 35.377494 35.429334 35.480498 35.530965 35.580646
35.629521 35.677503 35.724572 35.770643 35.815701 35.859663 35.902515 35.944180
35.984646 36.023840 36.061754 36.098320 36.133531 36.167328 36.199703 36.230605
36.260029 36.287928 36.314299 36.339103 36.362338 36.383969 36.403998 36.422394
36.439158 36.454268 36.467725 36.479510 36.489624 36.498055 36.504803 36.509860
36.513226 36.514897 36.514875 36.513157 36.509746 36.504644 36.497852 36.489378
36.479221 36.467395 36.453899 36.438751 36.421950 36.403521 36.383461 36.361800
36.338539 36.313713 36.287322 36.259407 36.229972 36.199063 36.166685 36.132892
36.097689 36.061138 36.023245 35.984079 35.943648 35.902026 35.859225 35.815324
35.770336 35.724344 35.677365 35.629485 35.580723 35.531167 35.480838 35.429827
35.378153 35.325911 35.273117 35.219867 35.166178 35.112145 35.057781 35.003181
34.948357 34.893400 34.838318 34.783201 34.728053 34.672959 34.617922 34.563020
34.508251 34.453691 34.399332 34.345244 34.291416 34.237911 34.184714 34.131882
34.079396 34.027307 33.975592 33.924294 33.873387 33.822909 33.772830 33.723181
33.673930 33.625100 33.576658 33.528622 33.480955 33.433669 33.386727 33.340134
33.293853 33.247883 33.202188 33.156760 33.111563 33.066587 33.021794 32.977169
32.932679 32.888301 32.844006 32.799767 32.755556
33.133333 33.202237 33.271180 33.340205 33.409346 33.478648 33.548141 33.617874
33.687869 33.758176 33.828811 33.899827 33.971231 34.043075 34.115360 34.188138
34.261399 34.335196 34.409510 34.484390 34.559810 34.635815 34.712370 34.789517
34.867209 34.945486 35.024291 35.103659 35.183523 35.263911 35.344748 35.426058
35.507753 35.589851 35.672258 35.754983 35.837924 35.921085 36.004354 36.087729
36.171091 36.254433 36.337629 36.420666 36.503413 36.585854 36.667851 36.749384
36.830314 36.910617 36.990154 37.068897 37.146706 37.223555 37.299303 37.373924
37.447282 37.519349 37.589994 37.659191 37.726815 37.792843 37.857155 37.919730
37.980458 38.039321 38.096216 38.151129 38.203967 38.254718 38.303299 38.349701
38.393850 38.435741 38.475309 38.512551 38.547411 38.579888 38.609935 38.637554
38.662704 38.685388 38.705575 38.723267 38.738439 38.751095 38.761218 38.768809
38.773859 38.776369 38.776334 38.773757 38.768639 38.760981 38.750792 38.738071
38.722835 38.705082 38.684835 38.662094 38.636890 38.609221 38.579126 38.546606
38.511707 38.474431 38.434834 38.392920 38.348754 38.302341 38.253757 38.203011
38.150186 38.095295 38.038431 37.979610 37.918935 37.856424 37.792190 37.726252
37.658733 37.589655 37.519145 37.447230 37.374042 37.299609 37.224069 37.147449
37.069889 36.991419 36.912179 36.832196 36.751613 36.670454 36.588860 36.506851
36.424567 36.342023 36.259354 36.176572 36.093806 36.011063 35.928464 35.846011
35.763819 35.681882 35.600308 35.519084 35.438309 35.357964 35.278138 35.198808
35.120052 35.041840 34.964242 34.887222 34.810839 34.735054 34.659915 34.585377
34.511482 34.438179 34.365498 34.293389 34.221872 34.150893 34.080464 34.010529
33.941092 33.872096 33.803536 33.735357 33.667545 33.600046 33.532839 33.465871
33.399115 33.332522 33.266057 33.199673 33.133333
33.511111 33.603029 33.695002 33.787078 33.879318 33.971763 34.064478 34.157495
34.250883 34.344666 34.438914 34.533641 34.628919 34.724753 34.821212 34.918291
35.016060 35.114500 35.213679 35.313566 35.414227 35.515619 35.617801 35.720718
35.824426 35.928855 36.034055 36.139943 36.246562 36.353817 36.461743 36.570231
36.679310 36.788856 36.898890 37.009279 37.120033 37.231007 37.342204 37.453469
37.564797 37.676022 37.787132 37.897954 38.008469 38.118497 38.228013 38.336833
38.444927 38.552107 38.658341 38.763439 38.867366 38.969935 39.071108 39.170703
39.268681 39.364865 39.459218 39.551569 39.641884 39.730001 39.815888 39.899394
39.980491 40.059038 40.135012 40.208284 40.278836 40.346550 40.411414 40.473321
40.532263 40.588148 40.640970 40.690650 40.737184 40.780505 40.820613 40.857450
40.891020 40.921275 40.948218 40.971813 40.992063 41.008942 41.022452 41.032576
41.039315 41.042662 41.042616 41.039179 41.032349 41.022136 41.008538 40.991573
40.971239 40.947562 40.920540 40.890210 40.856568 40.819663 40.779493 40.736114
40.689528 40.639803 40.586943 40.531027 40.472062 40.410141 40.345273 40.277566
40.207031 40.133789 40.057856 39.979366 39.898339 39.814920 39.729135 39.641139
39.550964 39.458772 39.364599 39.268619 39.170866 39.071523 38.970626 38.868362
38.764768 38.660034 38.554196 38.447444 38.339813 38.231492 38.122512 38.013060
37.903161 37.792998 37.682589 37.572112 37.461579 37.351157 37.240853 37.130824
37.021067 36.911732 36.802806 36.694427 36.586575 36.479374 36.372796 36.266953
36.161809 36.057464 35.953873 35.851122 35.749160 35.648059 35.547764 35.448332
35.349702 35.251920 35.154918 35.058731 34.963288 34.868610 34.774624 34.681340
34.588683 34.496651 34.405171 34.314229 34.223751 34.133715 34.044049 33.954721
33.865661 33.776830 33.688162 33.599609 33.511111
33.888889 34.003862 34.118900 34.234075 34.349445 34.465087 34.581048 34.697411
34.814214 34.931541 35.049419 35.167936 35.287103 35.407011 35.527658 35.649133
35.771420 35.894607 36.018662 36.143669 36.269583 36.396482 36.524305 36.653123
36.782860 36.913581 37.045192 37.177750 37.311144 37.445424 37.580461 37.716295
37.852782 37.989951 38.127643 38.265877 38.404478 38.543454 38.682618 38.821968
38.961302 39.100610 39.239679 39.378489 39.516819 39.654639 39.791724 39.928036
40.063342 40.197603 40.330583 40.462237 40.592330 40.720815 40.847460 40.972217
41.094860 41.215341 41.333442 41.449117 41.562158 41.672524 41.780017 41.884601
41.986092 42.084458 42.179530 42.271284 42.359563 42.444349 42.525504 42.603013
42.676753 42.746715 42.812793 42.874981 42.933188 42.987413 43.037577 43.083684
43.125667 43.163532 43.197226 43.226754 43.252078 43.273200 43.290094 43.302762
43.311190 43.315378 43.315321 43.311020 43.302481 43.289701 43.272697 43.251467
43.226039 43.196409 43.162617 43.124658 43.082585 43.036395 42.986152 42.931856
42.873585 42.811340 42.745214 42.675213 42.601446 42.523920 42.442761 42.357982
42.269725 42.178008 42.082989 41.984693 41.883291 41.778815 41.671451 41.561236
41.448370 41.332893 41.215019 41.094791 40.972431 40.847988 40.721690 40.593585
40.463909 40.332710 40.200224 40.066499 39.931771 39.796082 39.659669 39.522567
39.385008 39.247021 39.108831 38.970457 38.832117 38.693821 38.555774 38.417978
38.280626 38.143708 38.007403 37.871692 37.736739 37.602513 37.469162 37.336647
37.205100 37.074470 36.944872 36.816248 36.688695 36.562147 36.436686 36.312236
36.188864 36.066488 35.945157 35.824786 35.705409 35.586935 35.469384 35.352662
35.236775 35.121629 35.007215 34.893439 34.780278 34.667643 34.555497 34.443752
34.332364 34.221247 34.110345 33.999581 33.888889
34.266667 34.404742 34.542900 34.681215 34.819777 34.958649 35.097929 35.237667
35.377965 35.518861 35.660461 35.802786 35.945945 36.089944 36.234891 36.380776
36.527706 36.675652 36.824718 36.974859 37.126171 37.278592 37.432212 37.586948
37.742883 37.899915 38.058117 38.217366 38.377727 38.539057 38.701408 38.864618
39.028727 39.193554 39.359127 39.525246 39.691927 39.858951 40.026321 40.193805
40.361393 40.528838 40.696118 40.862973 41.029373 41.195047 41.359956 41.523822
41.686598 41.848003 42.007982 42.166254 42.322761 42.477223 42.629580 42.779557
42.927095 43.071926 43.213994 43.353041 43.489014 43.621670 43.750961 43.876658
43.998719 44.116932 44.231263 44.341518 44.447670 44.549542 44.647116 44.740234
44.828884 44.912927 44.992356 45.067053 45.137014 45.202138 45.262427 45.317796
45.368248 45.413716 45.454205 45.489660 45.520087 45.545448 45.565746 45.580957
45.591082 45.596111 45.596043 45.590880 45.580620 45.565276 45.544847 45.519358
45.488805 45.453228 45.412623 45.367043 45.316483 45.261014 45.200632 45.135423
45.065385 44.990621 44.911134 44.827046 44.738363 44.645225 44.547646 44.445784
44.339659 44.229449 44.115181 43.997053 43.875098 43.749531 43.620395 43.487921
43.352157 43.213349 43.071552 42.927026 42.779827 42.630227 42.478286 42.324282
42.168275 42.010549 41.851162 41.690401 41.528319 41.365202 41.201098 41.036288
40.870812 40.704945 40.538719 40.372397 40.206001 40.039783 39.873752 39.708147
39.542963 39.378425 39.214516 39.051441 38.889171 38.727893 38.567565 38.408355
38.250210 38.093276 37.937489 37.782976 37.629662 37.477654 37.326867 37.177389
37.029126 36.882146 36.736350 36.591786 36.448349 36.306069 36.164838 36.024667
35.885446 35.747171 35.609729 35.473100 35.337174 35.201916 35.067216 34.933028
34.799245 34.665808 34.532618 34.399601 34.266667
34.644444 34.805682 34.967012 35.128536 35.290335 35.452518 35.615153 35.778357
35.942182 36.106749 36.272096 36.438345 36.605516 36.773734 36.942999 37.113436
37.285023 37.457884 37.631976 37.807417 37.984145 38.162269 38.341704 38.522552
38.704706 38.888257 39.073074 39.259238 39.446594 39.635211 39.824909 40.015744
40.207515 40.400262 40.593761 40.788038 40.982849 41.178204 41.373839 41.569749
41.765654 41.961534 42.157093 42.352298 42.546840 42.740676 42.933484 43.125213
43.315534 43.504388 43.691444 43.876634 44.059631 44.240362 44.418503 44.593983
44.766484 44.935936 45.102032 45.264707 45.423667 45.578853 45.729987 45.877018
46.019686 46.157949 46.291568 46.420507 46.544551 46.663672 46.777678 46.886549
46.990114 47.088362 47.181143 47.268454 47.350165 47.426278 47.496684 47.561389
47.620302 47.673431 47.720705 47.762130 47.797655 47.827284 47.850982 47.868752
47.880573 47.886448 47.886370 47.880338 47.868361 47.850437 47.826587 47.796809
47.761139 47.719572 47.672162 47.618903 47.559866 47.495045 47.424531 47.348319
47.266519 47.179130 47.086283 46.987982 46.884379 46.775486 46.661474 46.542365
46.418353 46.289466 46.155923 46.017759 45.875215 45.728336 45.577383 45.422409
45.263694 45.101298 44.935519 44.766422 44.594318 44.419278 44.241623 44.061424
43.879013 43.694458 43.508096 43.319991 43.130481 42.939625 42.747757 42.554929
42.361467 42.167414 41.973086 41.778514 41.584002 41.389567 41.195497 41.001796
40.808734 40.616300 40.424745 40.234041 40.044419 39.855837 39.668502 39.482358
39.297590 39.114127 38.932130 38.751518 38.572425 38.394760 38.218634 38.043943
37.870778 37.699025 37.528752 37.359838 37.192330 37.026102 36.861177 36.697427
36.534856 36.373334 36.212845 36.053259 35.894543 35.736568 35.579286 35.422570
35.266358 35.110528 34.955004 34.799673 34.644444
35.022222 35.206687 35.391264 35.576053 35.761174 35.946715 36.132804 36.319512
36.506976 36.695246 36.884465 37.074665 37.265989 37.458448 37.652186 37.847194
38.043610 38.241403 38.440708 38.641468 38.843812 39.047658 39.253127 39.460110
39.668717 39.878813 40.090496 40.303604 40.518223 40.734161 40.951490 41.169992
41.389722 41.610437 41.832174 42.054666 42.277932 42.501682 42.725917 42.950325
43.174892 43.399285 43.623475 43.847114 44.070155 44.292239 44.513307 44.732988
44.951213 45.167608 45.382094 45.594294 45.804126 46.011215 46.215477 46.416543
46.614330 46.808479 46.998911 47.185282 47.367518 47.545293 47.718539 47.886953
48.050477 48.208827 48.361957 48.509610 48.651747 48.788136 48.918751 49.043385
49.162020 49.274476 49.380743 49.480664 49.574238 49.661332 49.741949 49.815979
49.883428 49.944207 49.998325 50.045712 50.086376 50.120266 50.147391 50.167716
50.181246 50.187966 50.187876 50.180979 50.167271 50.146771 50.119474 50.085414
50.044585 49.997038 49.942766 49.881839 49.814249 49.740088 49.659348 49.572142
49.478467 49.378457 49.272116 49.159602 49.040923 48.916264 48.785643 48.649268
48.507168 48.359577 48.206532 48.048296 47.884915 47.716676 47.543636 47.366104
47.184148 46.998098 46.808027 46.614285 46.416951 46.216389 46.012682 45.806203
45.597038 45.385567 45.171871 44.956335 44.739035 44.520354 44.300359 44.079429
43.857620 43.635301 43.412516 43.189620 42.966643 42.743924 42.521476 42.299620
42.078352 41.857969 41.638452 41.420075 41.202799 40.986875 40.772247 40.559138
40.347476 40.137459 39.928999 39.722265 39.517157 39.313817 39.112130 38.912213
38.713940 38.517401 38.322462 38.129187 37.937434 37.747243 37.558467 37.371122
37.185058 37.000269 36.816605 36.634036 36.452415 36.271694 36.091726 35.912447
35.733715 35.555447 35.377512 35.199812 35.022222
35.400000 35.607771 35.815662 36.023806 36.232307 36.441309 36.650900 36.861232
37.072373 37.284481 37.497606 37.711906 37.927410 38.144277 38.362512 38.582274
38.803541 39.026468 39.251006 39.477305 39.705287 39.935094 40.166619 40.399993
40.635079 40.871996 41.110577 41.350925 41.592842 41.836416 42.081419 42.327919
42.575661 42.824692 43.074728 43.325797 43.577588 43.830109 44.083022 44.336317
44.589632 44.842938 45.095853 45.348330 45.599970 45.850713 46.100143 46.348187
46.594423 46.838766 47.080789 47.320400 47.557173 47.791012 48.021494 48.248524
48.471690 48.690898 48.905750 49.116159 49.321744 49.522426 49.717848 49.907940
50.092369 50.271075 50.443756 50.610363 50.770620 50.924492 51.071733 51.212318
51.346031 51.472857 51.592608 51.705279 51.810709 51.908900 51.999717 52.083166
52.159138 52.227643 52.288591 52.341995 52.387788 52.425979 52.456522 52.479425
52.494661 52.502233 52.502133 52.494362 52.478929 52.455830 52.425094 52.386713
52.340736 52.287153 52.226032 52.157363 52.081234 51.997637 51.906683 51.808367
51.702825 51.590056 51.470223 51.343331 51.209571 51.068958 50.921712 50.767857
50.607642 50.441104 50.268521 50.089942 49.905675 49.715780 49.520592 49.320183
49.114914 48.904865 48.690421 48.471671 48.249016 48.022552 47.792695 47.559542
47.323522 47.084729 46.843597 46.600219 46.355026 46.108105 45.859884 45.610438
45.360187 45.109192 44.857861 44.606238 44.354715 44.103319 43.852420 43.602027
43.352487 43.103789 42.856254 42.609852 42.364876 42.121275 41.879314 41.638922
41.400336 41.163466 40.928516 40.695382 40.464237 40.234960 40.007696 39.782310
39.558915 39.337366 39.117748 38.899904 38.683893 38.469551 38.256908 38.045797
37.836221 37.628011 37.421147 37.215458 37.010902 36.807312 36.604621 36.402669
36.201371 36.000572 35.800169 35.600018 35.400000
35.777778 36.008935 36.240234 36.471801 36.703791 36.936311 37.169528 37.403531
37.638491 37.874476 38.111663 38.350097 38.589957 38.831261 39.074188 39.318729
39.565060 39.813143 40.063149 40.315009 40.568885 40.824676 41.082535 41.342327
41.604192 41.867962 42.133759 42.401384 42.670941 42.942196 43.215234 43.489787
43.765920 44.043331 44.322064 44.601786 44.882516 45.163893 45.445915 45.728190
46.010696 46.293018 46.575110 46.856537 47.137236 47.416753 47.695009 47.971537
48.246245 48.518659 48.788676 49.055819 49.319980 49.580685 49.837822 50.090927
50.339889 50.584258 50.823926 51.058463 51.287770 51.511439 51.729381 51.941214
52.146865 52.345979 52.538496 52.724094 52.902727 53.074106 53.238198 53.394746
53.543731 53.684930 53.818332 53.943747 54.061173 54.170450 54.271582 54.364437
54.449025 54.525239 54.593091 54.652497 54.703471 54.745951 54.779948 54.805421
54.822379 54.830802 54.830692 54.822050 54.804874 54.779184 54.744975 54.702287
54.651109 54.591506 54.523464 54.447068 54.362307 54.269290 54.168006 54.058593
53.941043 53.815521 53.682028 53.540758 53.391721 53.235143 53.071046 52.899688
52.721102 52.535582 52.343174 52.144204 51.938733 51.727119 51.509437 51.286074
51.057117 50.822982 50.583766 50.339908 50.091513 49.839038 49.582595 49.322654
49.059328 48.793096 48.524068 48.252728 47.979178 47.703900 47.426987 47.148912
46.869756 46.589979 46.309644 46.029196 45.748679 45.468516 45.188731 44.909722
44.631491 44.354408 44.078453 43.803967 43.530906 43.259579 42.989920 42.722207
42.456350 42.192595 41.930832 41.671271 41.413787 41.158554 40.905431 40.654558
40.405781 40.159207 39.914669 39.672244 39.431754 39.193246 38.956535 38.721639
38.488371 38.256717 38.026490 37.797653 37.570016 37.343519 37.117978 36.893308
36.669332 36.445944 36.222977 36.000307 35.777778
36.155556 36.410194 36.664981 36.920082 37.175628 37.431794 37.688694 37.946512
38.205337 38.465362 38.726652 38.989402 39.253650 39.519593 39.787240 40.056785
40.328206 40.601693 40.877191 41.154882 41.434676 41.716746 42.000965 42.287493
42.576167 42.867130 43.160183 43.455449 43.752692 44.052016 44.353144 44.656160
44.960750 45.266973 45.574481 45.883306 46.193065 46.503768 46.814998 47.126740
47.438548 47.750383 48.061774 48.372658 48.682545 48.991350 49.298566 49.604093
49.907411 50.208408 50.506557 50.801736 51.093421 51.381484 51.665407 51.945061
52.219941 52.489922 52.754517 53.013609 53.266734 53.513787 53.754331 53.988273
54.215210 54.435065 54.647467 54.852356 55.049398 55.238549 55.419510 55.592253
55.756518 55.912287 56.059338 56.197664 56.327075 56.447577 56.559009 56.661383
56.754568 56.838581 56.913318 56.978794 57.034933 57.081748 57.119187 57.147259
57.165933 57.175215 57.175095 57.165574 57.146662 57.118354 57.080684 57.033641
56.977280 56.911589 56.836645 56.752434 56.659060 56.556509 56.444914 56.324262
56.194717 56.056274 55.909126 55.753278 55.588959 55.416185 55.235219 55.046092
54.849104 54.644301 54.432020 54.212324 53.985587 53.751885 53.511630 53.264912
53.012175 52.753524 52.489429 52.220008 51.945754 51.666792 51.383635 51.096412
50.805647 50.511469 50.214410 49.914593 49.612551 49.308398 49.002661 48.695441
48.387254 48.078183 47.768728 47.458953 47.149336 46.839917 46.531150 46.223051
45.916045 45.610122 45.305675 45.002668 44.701461 44.401994 44.104588 43.809159
43.515994 43.224983 42.936376 42.650043 42.366194 42.084683 41.805681 41.529024
41.254847 40.982973 40.713501 40.446240 40.181257 39.918351 39.657556 39.398666
39.141682 38.886397 38.632780 38.380624 38.129872 37.880320 37.631883 37.384363
37.137653 36.891563 36.645964 36.400678 36.155556
36.533333 36.811547 37.089933 37.368648 37.647877 37.927756 38.208484 38.490172
38.773029 39.057140 39.342720 39.629824 39.918670 40.209284 40.501883 40.796460
41.093227 41.392143 41.693414 41.996962 42.302981 42.611356 42.922269 43.235564
43.551407 43.869601 44.190294 44.513248 44.838588 45.166035 45.495691 45.827236
46.160745 46.495859 46.832625 47.170646 47.509940 47.850073 48.191037 48.532363
48.874015 49.215493 49.556737 49.897219 50.236856 50.575098 50.911841 51.246521
51.579016 51.908751 52.235593 52.558965 52.878723 53.194295 53.505535 53.811881
54.113189 54.408915 54.698921 54.982685 55.260083 55.530619 55.794185 56.050318
56.298926 56.539585 56.772219 56.996444 57.212203 57.419153 57.617254 57.806205
57.985981 58.156322 58.317218 58.468446 58.610009 58.741718 58.863585 58.975456
59.077348 59.169137 59.250842 59.322368 59.383733 59.434868 59.475787 59.506447
59.526857 59.536996 59.536866 59.526469 59.505802 59.474888 59.433717 59.382336
59.320732 59.248974 59.167045 59.075042 58.972947 58.860885 58.738841 58.606971
58.465264 58.313911 58.152909 57.982486 57.802650 57.613668 57.415563 57.208640
56.992941 56.768812 56.536312 56.295828 56.047438 55.791569 55.528318 55.258149
54.981174 54.697893 54.408432 54.113320 53.812693 53.507105 53.196699 52.882045
52.563289 52.241013 51.915359 51.586913 51.255809 50.922630 50.587499 50.250989
49.913204 49.574704 49.235571 48.896343 48.557080 48.218292 47.880014 47.542725
47.206433 46.871583 46.538154 46.206555 45.876736 45.549067 45.223472 44.900280
44.579388 44.261084 43.945241 43.632106 43.321529 43.013715 42.708496 42.406035
42.106147 41.808956 41.514262 41.222151 40.932410 40.645091 40.359972 40.077068
39.796154 39.517210 39.240010 38.964503 38.690464 38.417814 38.146330 37.875907
37.606332 37.337473 37.069128 36.801145 36.533333
36.911111 37.213009 37.515087 37.817541 38.120531 38.424269 38.728890 39.034617
39.341558 39.649944 39.959856 40.271527 40.585007 40.900530 41.218111 41.537983
41.860123 42.184759 42.511828 42.841550 43.173821 43.508847 43.846484 44.186920
44.529968 44.875796 45.224174 45.575247 45.928738 46.284769 46.643019 47.003581
47.366089 47.730607 48.096726 48.464481 48.833419 49.203545 49.574366 49.945858
50.317491 50.689211 51.060458 51.431148 51.800696 52.168993 52.535433 52.899886
53.261732 53.620824 53.976533 54.328704 54.676708 55.020381 55.359104 55.692713
56.020604 56.342618 56.658174 56.967124 57.268915 57.563413 57.850102 58.128864
58.399224 58.661083 58.914008 59.157924 59.392440 59.617501 59.832763 60.038192
60.233486 60.418629 60.593363 60.757687 60.911382 61.054459 61.186738 61.308236
61.418807 61.518473 61.607121 61.684772 61.751341 61.806847 61.851233 61.884511
61.906649 61.917654 61.917515 61.906233 61.883819 61.850268 61.805614 61.749844
61.683018 61.605118 61.516230 61.416334 61.305546 61.183844 61.051377 60.908127
60.754278 60.589820 60.414975 60.229743 60.034389 59.828927 59.613663 59.388632
59.154184 58.910373 58.657594 58.395925 58.125804 57.847328 57.560982 57.266882
56.965551 56.657125 56.342162 56.020811 55.693661 55.360872 55.023055 54.680375
54.333460 53.982474 53.628053 53.270356 52.910021 52.547192 52.182502 51.816079
51.448541 51.079996 50.711039 50.341756 49.972714 49.603971 49.236063 48.869018
48.503337 48.139016 47.776517 47.415806 47.057302 46.700939 46.347095 45.995674
45.647008 45.300974 44.957859 44.617512 44.280178 43.945683 43.614224 43.285608
42.959991 42.637160 42.317228 41.999970 41.685457 41.373454 41.063993 40.756830
40.451962 40.149141 39.848327 39.549274 39.251908 38.955986 38.661406 38.367929
38.075425 37.783667 37.492498 37.201706 36.911111
37.288889 37.614577 37.940470 38.266753 38.593650 38.921320 39.250000 39.579825
39.911040 40.243751 40.578210 40.914488 41.252842 41.593306 41.936137 42.281332
42.629141 42.979522 43.332716 43.688637 44.047516 44.409222 44.773969 45.141580
45.512250 45.885755 46.262265 46.641509 47.023631 47.408312 47.795665 48.185323
48.577369 48.971387 49.367428 49.765028 50.164204 50.564450 50.965748 51.367549
51.769803 52.171924 52.573830 52.974901 53.375028 53.773564 54.170374 54.564792
54.956661 55.345304 55.730548 56.111713 56.488615 56.860578 57.227417 57.588468
57.943548 58.292015 58.633695 58.967975 59.294696 59.613281 59.923588 60.225081
60.517642 60.800780 61.074401 61.338060 61.591690 61.834895 62.067629 62.289548
62.500626 62.700567 62.889365 63.066767 63.232782 63.387201 63.530043 63.661137
63.780507 63.888020 63.983702 64.067450 64.139289 64.199145 64.247039 64.282922
64.306809 64.318676 64.318527 64.306365 64.282185 64.246011 64.197831 64.137695
64.065582 63.981569 63.885632 63.777875 63.658273 63.526963 63.383920 63.229319
63.063140 62.885597 62.696681 62.496648 62.285506 62.063554 61.830819 61.587650
61.334094 61.070550 60.797088 60.514157 60.221853 59.920672 59.610733 59.292581
58.966354 58.632640 58.291597 57.943848 57.589565 57.229399 56.863535 56.492644
56.116913 55.737027 55.353170 54.966032 54.575787 54.183122 53.788195 53.391681
52.993717 52.594959 52.195518 51.796025 51.396560 50.997723 50.599562 50.202638
49.806968 49.413071 49.020929 48.631017 48.243282 47.858153 47.475545 47.095837
46.718912 46.345103 45.974261 45.606670 45.242156 44.880953 44.522862 44.168073
43.816364 43.467877 43.122375 42.779955 42.440367 42.103664 41.769586 41.438145
41.109075 40.782350 40.457701 40.135066 39.814178 39.494939 39.177089 38.860500
38.544918 38.230187 37.916067 37.602375 37.288889
37.666667 38.016265 38.366074 38.716328 39.067214 39.418981 39.771789 40.125900
40.481445 40.838694 41.197744 41.558870 41.922133 42.287809 42.655919 43.026737
43.400240 43.776696 44.156039 44.538522 44.924035 45.312816 45.704704 46.099919
46.498250 46.899892 47.304585 47.712496 48.123311 48.537169 48.953704 49.373020
49.794698 50.218809 50.644883 51.072953 51.502499 51.933517 52.365441 52.798228
53.231271 53.664490 54.097238 54.529404 54.960307 55.389806 55.817194 56.242305
56.664413 57.083332 57.498327 57.909199 58.315214 58.716163 59.111323 59.500485
59.882945 60.258503 60.626480 60.986690 61.338492 61.681718 62.015768 62.340500
62.655361 62.960236 63.254623 63.538433 63.811222 64.072926 64.323153 64.561868
64.788732 65.003731 65.206576 65.397273 65.575581 65.741518 65.894888 66.035718
66.163852 66.279320 66.382001 66.471926 66.549006 66.613266 66.664647 66.703167
66.728792 66.741532 66.741375 66.728322 66.702387 66.663559 66.611876 66.547318
66.469949 66.379743 66.276793 66.161066 66.032689 65.891629 65.738048 65.571917
65.393438 65.202592 64.999624 64.784529 64.557600 64.318851 64.068626 63.806962
63.534255 63.250569 62.956355 62.651704 62.337120 62.012723 61.679071 61.336307
60.985039 60.625434 60.258143 59.883353 59.501749 59.113534 58.719422 58.319620
57.914863 57.505359 57.091853 56.674545 56.254181 55.830947 55.405579 54.978245
54.549662 54.119973 53.689870 53.259464 52.829415 52.399801 51.971244 51.543784
51.118001 50.693897 50.272007 49.852294 49.435242 49.020779 48.609336 48.200806
47.795569 47.393482 46.994873 46.599569 46.207845 45.819499 45.434756 45.053390
44.675573 44.301061 43.929976 43.562057 43.197380 42.835670 42.476959 42.120962
41.767669 41.416792 41.068279 40.721841 40.377390 40.034640 39.693468 39.353596
39.014868 38.677018 38.339862 38.003148 37.666667
38.044444 38.418067 38.791929 39.166248 39.541283 39.917223 40.294343 40.672803
41.052889 41.434725 41.818605 42.204618 42.593059 42.983977 43.377667 43.774132
44.173663 44.576218 44.982075 45.391145 45.803692 46.219576 46.639041 47.061895
47.488358 47.918184 48.351566 48.788202 49.228255 49.671365 50.117660 50.566725
51.018652 51.472967 51.929724 52.388395 52.848992 53.310935 53.774195 54.238143
54.702710 55.167221 55.631569 56.095040 56.557492 57.018178 57.476925 57.932962
58.386091 58.835525 59.281047 59.721865 60.157751 60.587919 61.012135 61.429630
61.840175 62.243025 62.637964 63.024283 63.401786 63.769805 64.128168 64.476261
64.813938 65.140640 65.456254 65.760277 66.052628 66.332865 66.600935 66.856455
67.099401 67.329445 67.546586 67.750549 67.941353 68.118770 68.282831 68.433355