# vtk DataFile Version 3.0
Steady-state temperature (Jacobi)
ASCII
DATASET STRUCTURED_POINTS
DIMENSIONS 181 181 1
ORIGIN 0.0 0.0 0.0
SPACING 0.05 0.05 1.0
POINT_DATA 32761
SCALARS Temperature float 1
LOOKUP_TABLE default
32.000000 32.000000 32.000000 32.000000 32.000000 32.000000 32.000000 32.000000
32.000000 32.000000 32.000000 32.000000 32.000000 32.000000 32.000000 32.000000
32.000000 32.000000 32.000000 32.000000 32.000000 32.000000 32.000000 32.000000
32.000000 32.000000 32.000000 32.000000 32.000000 32.000000 32.000000 32.000000
32.000000 32.000000 32.000000 32.000000 32.000000 32.000000 32.000000 32.000000
32.000000 32.000000 32.000000 32.000000 32.000000 32.000000 32.000000 32.000000
32.000000 32.000000 32.000000 32.000000 32.000000 32.000000 32.000000 32.000000
32.000000 32.000000 32.000000 32.000000 32.000000 32.000000 32.000000 32.000000
32.000000 32.000000 32.000000 32.000000 32.000000 32.000000 32.000000 32.000000
32.000000 32.000000 32.000000 32.000000 32.000000 32.000000 32.000000 32.000000
32.000000 32.000000 32.000000 32.000000 32.000000 32.000000 32.000000 32.000000
32.000000 32.000000 32.000000 32.000000 32.000000 32.000000 32.000000 32.000000
32.000000 32.000000 32.000000 32.000000 32.000000 32.000000 32.000000 32.000000
32.000000 32.000000 32.000000 32.000000 32.000000 32.000000 32.000000 32.000000
32.000000 32.000000 32.000000 32.000000 32.000000 32.000000 32.000000 32.000000
32.000000 32.000000 32.000000 32.000000 32.000000 32.000000 32.000000 32.000000
32.000000 32.000000 32.000000 32.000000 32.000000 32.000000 32.000000 32.000000
32.000000 32.000000 32.000000 32.000000 32.000000 32.000000 32.000000 32.000000
32.000000 32.000000 32.000000 32.000000 32.000000 32.000000 32.000000 32.000000
32.000000 32.000000 32.000000 32.000000 32.000000 32.000000 32.000000 32.000000
32.000000 32.000000 32.000000 32.000000 32.000000 32.000000 32.000000 32.000000
32.000000 32.000000 32.000000 32.000000 32.000000 32.000000 32.000000 32.000000
32.000000 32.000000 32.000000 32.000000 32.000000
32.377778 32.356497 32.335322 32.314358 32.293705 32.273459 32.253713 32.234548
32.216042 32.198259 32.181257 32.165082 32.149771 32.135350 32.121834 32.109230
32.097536 32.086738 32.076819 32.067752 32.059506 32.052043 32.045323 32.039301
32.033933 32.029172 32.024969 32.021278 32.018053 32.015248 32.012822 32.010734
32.008945 32.007421 32.006129 32.005038 32.004123 32.003358 32.002723 32.002198
32.001766 32.001412 32.001124 32.000890 32.000702 32.000551 32.000430 32.000334
32.000259 32.000199 32.000153 32.000116 32.000088 32.000067 32.000050 32.000038
32.000028 32.000021 32.000015 32.000011 32.000008 32.000006 32.000004 32.000003
32.000002 32.000002 32.000001 32.000001 32.000001 32.000001 32.000001 32.000001
32.000001 32.000001 32.000001 32.000001 32.000001 32.000001 32.000001 32.000001
32.000001 32.000001 32.000001 32.000001 32.000001 32.000001 32.000001 32.000001
32.000001 32.000001 32.000001 32.000001 32.000001 32.000001 32.000001 32.000001
32.000001 32.000001 32.000001 32.000001 32.000001 32.000001 32.000001 32.000001
32.000001 32.000001 32.000001 32.000000 32.000001 32.000001 32.000001 32.000001
32.000001 32.000001 32.000001 32.000002 32.000002 32.000003 32.000004 32.000006
32.000008 32.000011 32.000015 32.000021 32.000028 32.000038 32.000050 32.000067
32.000088 32.000116 32.000153 32.000199 32.000259 32.000334 32.000430 32.000551
32.000702 32.000890 32.001124 32.001412 32.001766 32.002198 32.002723 32.003358
32.004123 32.005038 32.006129 32.007421 32.008945 32.010734 32.012822 32.015248
32.018053 32.021278 32.024969 32.029172 32.033933 32.039301 32.045323 32.052043
32.059506 32.067752 32.076819 32.086738 32.097536 32.109230 32.121834 32.135350
32.149771 32.165082 32.181257 32.198259 32.216042 32.234548 32.253713 32.273459
32.293705 32.314358 32.335322 32.356497 32.377778
32.755556 32.712994 32.670645 32.628716 32.587409 32.546919 32.507426 32.469097
32.432083 32.396518 32.362514 32.330164 32.299542 32.270700 32.243668 32.218461
32.195071 32.173477 32.153638 32.135505 32.119012 32.104086 32.090645 32.078603
32.067867 32.058343 32.049938 32.042556 32.036105 32.030497 32.025645 32.021468
32.017891 32.014842 32.012257 32.010077 32.008246 32.006717 32.005446 32.004395
32.003531 32.002823 32.002247 32.001780 32.001403 32.001101 32.000860 32.000669
32.000517 32.000398 32.000305 32.000233 32.000177 32.000133 32.000100 32.000075
32.000056 32.000042 32.000031 32.000023 32.000017 32.000012 32.000009 32.000007
32.000005 32.000004 32.000003 32.000002 32.000002 32.000001 32.000001 32.000001
32.000001 32.000001 32.000001 32.000001 32.000001 32.000001 32.000001 32.000001
32.000001 32.000002 32.000002 32.000002 32.000002 32.000002 32.000002 32.000002
32.000002 32.000002 32.000002 32.000002 32.000002 32.000002 32.000002 32.000002
32.000002 32.000002 32.000001 32.000001 32.000001 32.000001 32.000001 32.000001
32.000001 32.000001 32.000001 32.000001 32.000001 32.000001 32.000001 32.000001
32.000002 32.000002 32.000003 32.000004 32.000005 32.000006 32.000009 32.000012
32.000017 32.000023 32.000031 32.000041 32.000056 32.000075 32.000100 32.000133
32.000177 32.000233 32.000305 32.000398 32.000517 32.000669 32.000860 32.001101
32.001403 32.001780 32.002247 32.002823 32.003531 32.004395 32.005446 32.006717
32.008246 32.010077 32.012257 32.014842 32.017891 32.021468 32.025645 32.030497
32.036105 32.042556 32.049938 32.058343 32.067867 32.078603 32.090645 32.104086
32.119012 32.135505 32.153638 32.173477 32.195071 32.218461 32.243668 32.270700
32.299542 32.330164 32.362514 32.396518 32.432083 32.469097 32.507426 32.546919
32.587409 32.628716 32.670645 32.712994 32.755556
33.133333 33.069492 33.005967 32.943074 32.881114 32.820378 32.761139 32.703645
32.648125 32.594777 32.543770 32.495246 32.449313 32.406049 32.365502 32.327691
32.292607 32.260215 32.230458 32.203257 32.178518 32.156129 32.135968 32.117904
32.101800 32.087515 32.074907 32.063834 32.054158 32.045745 32.038467 32.032202
32.026836 32.022263 32.018386 32.015115 32.012369 32.010075 32.008169 32.006593
32.005297 32.004235 32.003371 32.002670 32.002105 32.001652 32.001290 32.001003
32.000776 32.000597 32.000458 32.000349 32.000265 32.000200 32.000151 32.000113
32.000084 32.000062 32.000046 32.000034 32.000025 32.000018 32.000013 32.000010
32.000007 32.000006 32.000004 32.000003 32.000003 32.000002 32.000002 32.000002
32.000002 32.000002 32.000002 32.000002 32.000002 32.000002 32.000002 32.000002
32.000002 32.000003 32.000003 32.000003 32.000003 32.000003 32.000003 32.000003
32.000003 32.000003 32.000003 32.000003 32.000003 32.000003 32.000003 32.000003
32.000003 32.000003 32.000003 32.000002 32.000002 32.000002 32.000002 32.000002
32.000002 32.000002 32.000002 32.000002 32.000002 32.000002 32.000002 32.000002
32.000003 32.000003 32.000004 32.000005 32.000007 32.000010 32.000013 32.000018
32.000025 32.000034 32.000046 32.000062 32.000084 32.000113 32.000151 32.000200
32.000265 32.000349 32.000458 32.000597 32.000776 32.001003 32.001290 32.001652
32.002105 32.002670 32.003371 32.004235 32.005297 32.006593 32.008169 32.010075
32.012369 32.015115 32.018386 32.022263 32.026836 32.032202 32.038467 32.045745
32.054158 32.063834 32.074907 32.087515 32.101800 32.117904 32.135968 32.156129
32.178518 32.203257 32.230458 32.260215 32.292607 32.327691 32.365502 32.406049
32.449313 32.495246 32.543770 32.594777 32.648125 32.703645 32.761139 32.820378
32.881114 32.943074 33.005967 33.069492 33.133333
33.511111 33.425989 33.341290 33.257432 33.174819 33.093838 33.014851 32.938194
32.864167 32.793036 32.725027 32.660328 32.599084 32.541399 32.487337 32.436922
32.390143 32.346953 32.307277 32.271009 32.238023 32.208171 32.181290 32.157206
32.135734 32.116687 32.099876 32.085112 32.072210 32.060993 32.051289 32.042936
32.035782 32.029685 32.024515 32.020153 32.016492 32.013434 32.010892 32.008791
32.007062 32.005647 32.004494 32.003560 32.002807 32.002202 32.001720 32.001337
32.001034 32.000796 32.000610 32.000466 32.000353 32.000267 32.000201 32.000150
32.000112 32.000083 32.000061 32.000045 32.000033 32.000024 32.000018 32.000013
32.000010 32.000008 32.000006 32.000005 32.000004 32.000003 32.000003 32.000003
32.000003 32.000003 32.000003 32.000003 32.000003 32.000003 32.000004 32.000004
32.000004 32.000004 32.000004 32.000004 32.000004 32.000004 32.000005 32.000005
32.000005 32.000005 32.000005 32.000005 32.000005 32.000005 32.000004 32.000004
32.000004 32.000004 32.000004 32.000004 32.000004 32.000004 32.000003 32.000003
32.000003 32.000003 32.000003 32.000003 32.000003 32.000003 32.000003 32.000003
32.000004 32.000005 32.000006 32.000007 32.000010 32.000013 32.000018 32.000024
32.000033 32.000045 32.000061 32.000083 32.000112 32.000150 32.000201 32.000267
32.000353 32.000465 32.000610 32.000796 32.001034 32.001337 32.001720 32.002202
32.002807 32.003560 32.004494 32.005647 32.007062 32.008791 32.010892 32.013434
32.016492 32.020153 32.024515 32.029685 32.035782 32.042936 32.051289 32.060993
32.072210 32.085112 32.099876 32.116687 32.135734 32.157206 32.181290 32.208171
32.238023 32.271009 32.307277 32.346953 32.390143 32.436922 32.487337 32.541399
32.599084 32.660328 32.725027 32.793036 32.864167 32.938194 33.014851 33.093838
33.174819 33.257432 33.341290 33.425989 33.511111
33.888889 33.782486 33.676612 33.571789 33.468523 33.367297 33.268564 33.172742
33.080209 32.991295 32.906284 32.825410 32.748855 32.676749 32.609171 32.546152
32.487678 32.433692 32.384096 32.338762 32.297529 32.260214 32.226613 32.196507
32.169667 32.145859 32.124845 32.106390 32.090263 32.076242 32.064111 32.053670
32.044727 32.037106 32.030644 32.025192 32.020615 32.016792 32.013616 32.010989
32.008828 32.007058 32.005618 32.004450 32.003508 32.002753 32.002150 32.001671
32.001293 32.000996 32.000763 32.000582 32.000442 32.000334 32.000251 32.000188
32.000140 32.000104 32.000077 32.000057 32.000042 32.000031 32.000023 32.000017
32.000013 32.000010 32.000008 32.000006 32.000005 32.000005 32.000004 32.000004
32.000004 32.000004 32.000004 32.000005 32.000005 32.000005 32.000005 32.000006
32.000006 32.000006 32.000006 32.000007 32.000007 32.000007 32.000007 32.000007
32.000007 32.000007 32.000007 32.000007 32.000007 32.000007 32.000007 32.000007
32.000007 32.000006 32.000006 32.000006 32.000006 32.000005 32.000005 32.000005
32.000005 32.000004 32.000004 32.000004 32.000004 32.000004 32.000004 32.000004
32.000005 32.000006 32.000007 32.000010 32.000013 32.000017 32.000023 32.000031
32.000042 32.000057 32.000077 32.000104 32.000140 32.000188 32.000251 32.000334
32.000442 32.000582 32.000763 32.000996 32.001293 32.001671 32.002150 32.002753
32.003508 32.004450 32.005618 32.007058 32.008828 32.010989 32.013616 32.016792
32.020615 32.025192 32.030644 32.037106 32.044727 32.053670 32.064111 32.076242
32.090263 32.106390 32.124845 32.145859 32.169667 32.196507 32.226613 32.260214
32.297529 32.338762 32.384096 32.433692 32.487678 32.546152 32.609171 32.676749
32.748855 32.825410 32.906284 32.991295 33.080209 33.172742 33.268564 33.367297
33.468523 33.571789 33.676612 33.782486 33.888889
34.266667 34.138983 34.011935 33.886147 33.762228 33.640757 33.522277 33.407291
33.296250 33.189553 33.087541 32.990493 32.898626 32.812099 32.731005 32.655383
32.585214 32.520430 32.460915 32.406514 32.357035 32.312257 32.271936 32.235808
32.203601 32.175030 32.149814 32.127668 32.108316 32.091490 32.076934 32.064404
32.053672 32.044527 32.036772 32.030230 32.024738 32.020151 32.016339 32.013186
32.010593 32.008470 32.006741 32.005340 32.004210 32.003304 32.002580 32.002006
32.001552 32.001195 32.000916 32.000698 32.000530 32.000401 32.000301 32.000226
32.000168 32.000125 32.000093 32.000068 32.000051 32.000037 32.000028 32.000021
32.000016 32.000012 32.000010 32.000008 32.000007 32.000007 32.000006 32.000006
32.000006 32.000006 32.000007 32.000007 32.000007 32.000008 32.000008 32.000008
32.000009 32.000009 32.000009 32.000010 32.000010 32.000010 32.000010 32.000011
32.000011 32.000011 32.000011 32.000011 32.000011 32.000010 32.000010 32.000010
32.000010 32.000009 32.000009 32.000009 32.000008 32.000008 32.000008 32.000007
32.000007 32.000007 32.000006 32.000006 32.000006 32.000006 32.000006 32.000006
32.000007 32.000008 32.000010 32.000012 32.000015 32.000020 32.000027 32.000037
32.000050 32.000068 32.000092 32.000125 32.000168 32.000226 32.000301 32.000401
32.000530 32.000698 32.000916 32.001195 32.001552 32.002006 32.002580 32.003304
32.004210 32.005340 32.006741 32.008470 32.010593 32.013186 32.016339 32.020151
32.024738 32.030230 32.036772 32.044527 32.053672 32.064404 32.076934 32.091490
32.108316 32.127668 32.149814 32.175030 32.203601 32.235808 32.271936 32.312257
32.357035 32.406514 32.460915 32.520430 32.585214 32.655383 32.731005 32.812099
32.898626 32.990493 33.087541 33.189553 33.296250 33.407291 33.522277 33.640757
33.762228 33.886147 34.011935 34.138983 34.266667
34.644444 34.495480 34.347257 34.200505 34.055933 33.914216 33.775990 33.641839
33.512292 33.387812 33.268798 33.155575 33.048397 32.947448 32.852839 32.764613
32.682750 32.607168 32.537735 32.474267 32.416541 32.364300 32.317258 32.275110
32.237534 32.204202 32.174782 32.148945 32.126368 32.106738 32.089756 32.075138
32.062618 32.051948 32.042901 32.035268 32.028861 32.023509 32.019062 32.015384
32.012359 32.009882 32.007865 32.006230 32.004912 32.003854 32.003010 32.002340
32.001810 32.001394 32.001068 32.000815 32.000619 32.000468 32.000352 32.000264
32.000197 32.000146 32.000108 32.000080 32.000059 32.000044 32.000033 32.000025
32.000019 32.000015 32.000012 32.000011 32.000010 32.000009 32.000009 32.000009
32.000009 32.000009 32.000010 32.000010 32.000011 32.000011 32.000012 32.000013
32.000013 32.000014 32.000014 32.000015 32.000015 32.000015 32.000015 32.000016
32.000016 32.000016 32.000016 32.000016 32.000016 32.000015 32.000015 32.000015
32.000015 32.000014 32.000014 32.000013 32.000013 32.000012 32.000011 32.000011
32.000010 32.000010 32.000009 32.000009 32.000008 32.000008 32.000008 32.000008
32.000009 32.000010 32.000012 32.000015 32.000019 32.000025 32.000033 32.000044
32.000059 32.000080 32.000108 32.000146 32.000196 32.000263 32.000352 32.000467
32.000619 32.000815 32.001068 32.001394 32.001810 32.002340 32.003010 32.003854
32.004912 32.006230 32.007865 32.009882 32.012359 32.015384 32.019062 32.023509
32.028861 32.035268 32.042901 32.051948 32.062618 32.075138 32.089756 32.106738
32.126368 32.148945 32.174782 32.204202 32.237534 32.275110 32.317258 32.364300
32.416541 32.474267 32.537735 32.607168 32.682750 32.764613 32.852839 32.947448
33.048397 33.155575 33.268798 33.387812 33.512292 33.641839 33.775990 33.914216
34.055933 34.200505 34.347257 34.495480 34.644444
35.022222 34.851977 34.682580 34.514863 34.349638 34.187676 34.029703 33.876388
33.728334 33.586071 33.450055 33.320657 33.198168 33.082798 32.974673 32.873844
32.780285 32.693907 32.614554 32.542019 32.476047 32.416343 32.362581 32.314411
32.271467 32.233374 32.199751 32.170223 32.144421 32.121987 32.102578 32.085872
32.071563 32.059369 32.049030 32.040307 32.032984 32.026868 32.021785 32.017582
32.014124 32.011294 32.008988 32.007120 32.005614 32.004405 32.003440 32.002674
32.002069 32.001593 32.001221 32.000932 32.000707 32.000535 32.000402 32.000302
32.000225 32.000168 32.000125 32.000092 32.000069 32.000051 32.000039 32.000030
32.000023 32.000019 32.000016 32.000014 32.000013 32.000012 32.000012 32.000012
32.000013 32.000014 32.000014 32.000015 32.000016 32.000017 32.000018 32.000018
32.000019 32.000020 32.000021 32.000021 32.000022 32.000022 32.000023 32.000023
32.000023 32.000023 32.000023 32.000023 32.000023 32.000023 32.000022 32.000022
32.000021 32.000021 32.000020 32.000019 32.000018 32.000018 32.000017 32.000016
32.000015 32.000014 32.000013 32.000013 32.000012 32.000012 32.000011 32.000012
32.000012 32.000013 32.000015 32.000018 32.000023 32.000029 32.000038 32.000051
32.000068 32.000092 32.000124 32.000167 32.000225 32.000301 32.000402 32.000535
32.000707 32.000931 32.001221 32.001593 32.002069 32.002674 32.003440 32.004405
32.005613 32.007120 32.008988 32.011294 32.014124 32.017582 32.021785 32.026868
32.032984 32.040307 32.049030 32.059369 32.071563 32.085872 32.102578 32.121987
32.144421 32.170223 32.199751 32.233374 32.271467 32.314411 32.362581 32.416343
32.476047 32.542019 32.614554 32.693907 32.780285 32.873844 32.974673 33.082798
33.198168 33.320657 33.450055 33.586071 33.728334 33.876388 34.029703 34.187676
34.349638 34.514863 34.682580 34.851977 35.022222
35.400000 35.208475 35.017902 34.829221 34.643342 34.461135 34.283416 34.110936
33.944375 33.784330 33.631311 33.485739 33.347940 33.218148 33.096507 32.983074
32.877821 32.780645 32.691373 32.609771 32.535553 32.468386 32.407903 32.353713
32.305401 32.262546 32.224720 32.191501 32.162474 32.137235 32.115401 32.096606
32.080508 32.066790 32.055159 32.045345 32.037107 32.030226 32.024508 32.019780
32.015890 32.012705 32.010112 32.008010 32.006315 32.004956 32.003871 32.003009
32.002328 32.001793 32.001374 32.001048 32.000796 32.000602 32.000453 32.000340
32.000254 32.000189 32.000141 32.000105 32.000078 32.000059 32.000045 32.000035
32.000028 32.000023 32.000020 32.000018 32.000017 32.000017 32.000017 32.000018
32.000019 32.000020 32.000021 32.000022 32.000023 32.000025 32.000026 32.000027
32.000028 32.000029 32.000030 32.000031 32.000032 32.000033 32.000033 32.000034
32.000034 32.000034 32.000034 32.000034 32.000034 32.000033 32.000033 32.000032
32.000031 32.000030 32.000029 32.000028 32.000027 32.000026 32.000024 32.000023
32.000022 32.000021 32.000019 32.000018 32.000017 32.000016 32.000016 32.000016
32.000016 32.000017 32.000019 32.000022 32.000027 32.000034 32.000044 32.000058
32.000078 32.000104 32.000140 32.000189 32.000254 32.000339 32.000453 32.000602
32.000796 32.001048 32.001374 32.001793 32.002328 32.003009 32.003871 32.004956
32.006315 32.008010 32.010112 32.012705 32.015890 32.019780 32.024508 32.030226
32.037107 32.045345 32.055159 32.066790 32.080508 32.096606 32.115401 32.137235
32.162474 32.191501 32.224720 32.262546 32.305401 32.353713 32.407903 32.468386
32.535553 32.609771 32.691373 32.780645 32.877821 32.983074 33.096507 33.218148
33.347940 33.485739 33.631311 33.784330 33.944375 34.110936 34.283416 34.461135
34.643342 34.829221 35.017902 35.208475 35.400000
35.777778 35.564972 35.353224 35.143579 34.937047 34.734595 34.537129 34.345485
34.160417 33.982589 33.812568 33.650821 33.497711 33.353498 33.218342 33.092305
32.975357 32.867383 32.768192 32.677524 32.595059 32.520428 32.453226 32.393014
32.339334 32.291717 32.249689 32.212779 32.180526 32.152483 32.128223 32.107340
32.089454 32.074212 32.061287 32.050383 32.041230 32.033585 32.027231 32.021978
32.017655 32.014117 32.011235 32.008900 32.007017 32.005507 32.004301 32.003343
32.002587 32.001992 32.001527 32.001165 32.000885 32.000669 32.000504 32.000378
32.000283 32.000211 32.000158 32.000118 32.000089 32.000067 32.000052 32.000041
32.000034 32.000029 32.000026 32.000024 32.000024 32.000024 32.000024 32.000025
32.000027 32.000028 32.000030 32.000032 32.000034 32.000036 32.000038 32.000039
32.000041 32.000043 32.000044 32.000046 32.000047 32.000048 32.000049 32.000049
32.000050 32.000050 32.000050 32.000050 32.000049 32.000049 32.000048 32.000047
32.000046 32.000044 32.000043 32.000041 32.000039 32.000037 32.000036 32.000034
32.000032 32.000030 32.000028 32.000026 32.000025 32.000023 32.000022 32.000022
32.000022 32.000023 32.000024 32.000028 32.000033 32.000040 32.000051 32.000067
32.000088 32.000117 32.000157 32.000211 32.000283 32.000378 32.000504 32.000669
32.000885 32.001165 32.001527 32.001992 32.002587 32.003343 32.004301 32.005506
32.007017 32.008900 32.011235 32.014117 32.017655 32.021978 32.027231 32.033585
32.041230 32.050383 32.061287 32.074212 32.089454 32.107340 32.128223 32.152483
32.180526 32.212779 32.249689 32.291717 32.339334 32.393014 32.453226 32.520428
32.595059 32.677524 32.768192 32.867383 32.975357 33.092305 33.218342 33.353498
33.497711 33.650821 33.812568 33.982589 34.160417 34.345485 34.537129 34.734595
34.937047 35.143579 35.353224 35.564972 35.777778
36.155556 35.921469 35.688547 35.457937 35.230752 35.008054 34.790842 34.580033
34.376459 34.180848 33.993825 33.815903 33.647482 33.488847 33.340176 33.201535
33.072892 32.954122 32.845012 32.745276 32.654564 32.572471 32.498549 32.432315
32.373268 32.320889 32.274658 32.234057 32.198579 32.167732 32.141045 32.118074
32.098399 32.081633 32.067416 32.055422 32.045353 32.036943 32.029954 32.024175
32.019421 32.015529 32.012359 32.009790 32.007719 32.006057 32.004731 32.003678
32.002846 32.002192 32.001680 32.001282 32.000974 32.000737 32.000556 32.000418
32.000313 32.000234 32.000176 32.000132 32.000100 32.000077 32.000061 32.000049
32.000041 32.000036 32.000034 32.000032 32.000032 32.000033 32.000034 32.000036
32.000038 32.000041 32.000043 32.000046 32.000049 32.000052 32.000054 32.000057
32.000059 32.000062 32.000064 32.000066 32.000068 32.000069 32.000071 32.000071
32.000072 32.000072 32.000072 32.000072 32.000071 32.000071 32.000069 32.000068
32.000066 32.000064 32.000062 32.000059 32.000057 32.000054 32.000052 32.000049
32.000046 32.000043 32.000040 32.000038 32.000035 32.000033 32.000032 32.000030
32.000030 32.000030 32.000031 32.000034 32.000040 32.000047 32.000059 32.000076
32.000099 32.000131 32.000175 32.000233 32.000312 32.000417 32.000555 32.000737
32.000974 32.001282 32.001680 32.002191 32.002846 32.003678 32.004731 32.006057
32.007719 32.009790 32.012359 32.015529 32.019421 32.024175 32.029954 32.036943
32.045353 32.055422 32.067416 32.081633 32.098399 32.118074 32.141045 32.167732
32.198579 32.234057 32.274658 32.320889 32.373268 32.432315 32.498549 32.572471
32.654564 32.745276 32.845012 32.954122 33.072892 33.201535 33.340176 33.488847
33.647482 33.815903 33.993825 34.180848 34.376459 34.580033 34.790842 35.008054
35.230752 35.457937 35.688547 35.921469 36.155556
36.533333 36.277966 36.023869 35.772295 35.524456 35.281513 35.044554 34.814582
34.592501 34.379107 34.175082 33.980985 33.797253 33.624197 33.462010 33.310765
33.170428 33.040860 32.921831 32.813028 32.714070 32.624514 32.543871 32.471617
32.407201 32.350061 32.299627 32.255335 32.216631 32.182980 32.153867 32.128808
32.107345 32.089054 32.073545 32.060460 32.049476 32.040302 32.032677 32.026373
32.021186 32.016941 32.013483 32.010680 32.008421 32.006608 32.005162 32.004013
32.003105 32.002392 32.001834 32.001400 32.001064 32.000806 32.000608 32.000457
32.000343 32.000258 32.000194 32.000147 32.000113 32.000088 32.000071 32.000059
32.000051 32.000046 32.000044 32.000043 32.000044 32.000046 32.000048 32.000051
32.000055 32.000058 32.000062 32.000066 32.000070 32.000074 32.000078 32.000082
32.000086 32.000089 32.000092 32.000095 32.000098 32.000100 32.000102 32.000103
32.000104 32.000104 32.000104 32.000104 32.000103 32.000102 32.000100 32.000098
32.000095 32.000092 32.000089 32.000086 32.000082 32.000078 32.000074 32.000070
32.000066 32.000062 32.000058 32.000054 32.000051 32.000047 32.000044 32.000042
32.000041 32.000040 32.000041 32.000044 32.000048 32.000057 32.000069 32.000086
32.000111 32.000146 32.000193 32.000257 32.000342 32.000456 32.000607 32.000805
32.001063 32.001399 32.001833 32.002391 32.003105 32.004013 32.005161 32.006608
32.008421 32.010680 32.013483 32.016941 32.021186 32.026373 32.032677 32.040302
32.049476 32.060460 32.073545 32.089054 32.107345 32.128808 32.153867 32.182980
32.216631 32.255335 32.299627 32.350061 32.407201 32.471617 32.543871 32.624514
32.714070 32.813028 32.921831 33.040860 33.170428 33.310765 33.462010 33.624197
33.797253 33.980985 34.175082 34.379107 34.592501 34.814582 35.044554 35.281513
35.524456 35.772295 36.023869 36.277966 36.533333
36.911111 36.634463 36.359192 36.086653 35.818161 35.554973 35.298267 35.049130
34.808542 34.577366 34.356339 34.146067 33.947024 33.759547 33.583844 33.419996
33.267964 33.127598 32.998650 32.880781 32.773576 32.676557 32.589194 32.510918
32.441135 32.379233 32.324596 32.276613 32.234684 32.198228 32.166690 32.139542
32.116290 32.096475 32.079674 32.065498 32.053599 32.043660 32.035401 32.028571
32.022952 32.018353 32.014606 32.011571 32.009123 32.007159 32.005592 32.004348
32.003365 32.002592 32.001988 32.001518 32.001154 32.000875 32.000661 32.000498
32.000375 32.000283 32.000215 32.000164 32.000128 32.000102 32.000084 32.000072
32.000064 32.000060 32.000059 32.000059 32.000061 32.000064 32.000068 32.000073
32.000078 32.000084 32.000089 32.000095 32.000101 32.000107 32.000112 32.000118
32.000123 32.000128 32.000133 32.000137 32.000140 32.000144 32.000146 32.000148
32.000149 32.000150 32.000150 32.000149 32.000148 32.000146 32.000144 32.000140
32.000137 32.000133 32.000128 32.000123 32.000118 32.000112 32.000107 32.000101
32.000095 32.000089 32.000083 32.000077 32.000072 32.000067 32.000063 32.000059
32.000056 32.000054 32.000054 32.000056 32.000060 32.000068 32.000080 32.000099
32.000125 32.000162 32.000212 32.000281 32.000373 32.000496 32.000659 32.000873
32.001153 32.001517 32.001987 32.002591 32.003364 32.004347 32.005592 32.007159
32.009123 32.011570 32.014606 32.018352 32.022952 32.028571 32.035401 32.043660
32.053599 32.065498 32.079673 32.096475 32.116290 32.139542 32.166690 32.198228
32.234684 32.276613 32.324596 32.379233 32.441135 32.510918 32.589194 32.676557
32.773576 32.880781 32.998650 33.127598 33.267964 33.419996 33.583844 33.759547
33.947024 34.146067 34.356339 34.577366 34.808542 35.049130 35.298267 35.554973
35.818161 36.086653 36.359192 36.634463 36.911111
37.288889 36.990960 36.694514 36.401010 36.111866 35.828432 35.551980 35.283679
35.024584 34.775625 34.537596 34.311149 34.096795 33.894897 33.705678 33.529226
33.365499 33.214337 33.075469 32.948533 32.833082 32.728600 32.634517 32.550220
32.475068 32.408404 32.349565 32.297891 32.252737 32.213477 32.179512 32.150276
32.125236 32.103896 32.085802 32.070537 32.057722 32.047019 32.038124 32.030769
32.024718 32.019765 32.015730 32.012461 32.009825 32.007711 32.006023 32.004683
32.003625 32.002793 32.002142 32.001636 32.001245 32.000944 32.000715 32.000540
32.000408 32.000310 32.000237 32.000184 32.000145 32.000118 32.000100 32.000088
32.000082 32.000079 32.000079 32.000081 32.000085 32.000090 32.000097 32.000103
32.000111 32.000119 32.000127 32.000135 32.000144 32.000152 32.000161 32.000168
32.000176 32.000183 32.000189 32.000195 32.000201 32.000205 32.000209 32.000211
32.000213 32.000214 32.000214 32.000213 32.000211 32.000209 32.000205 32.000200
32.000195 32.000189 32.000183 32.000176 32.000168 32.000160 32.000152 32.000144
32.000135 32.000127 32.000118 32.000110 32.000102 32.000095 32.000088 32.000083
32.000078 32.000074 32.000072 32.000073 32.000076 32.000083 32.000095 32.000114
32.000141 32.000180 32.000234 32.000307 32.000406 32.000538 32.000713 32.000943
32.001244 32.001635 32.002141 32.002792 32.003624 32.004683 32.006023 32.007710
32.009825 32.012461 32.015730 32.019764 32.024718 32.030769 32.038124 32.047019
32.057722 32.070537 32.085802 32.103896 32.125235 32.150276 32.179512 32.213477
32.252737 32.297891 32.349565 32.408404 32.475068 32.550220 32.634517 32.728600
32.833082 32.948533 33.075469 33.214337 33.365499 33.529226 33.705678 33.894897
34.096795 34.311149 34.537596 34.775625 35.024584 35.283679 35.551980 35.828432
36.111866 36.401010 36.694514 36.990960 37.288889
37.666667 37.347458 37.029837 36.715368 36.405570 36.101892 35.805693 35.518227
35.240626 34.973884 34.718852 34.476231 34.246566 34.030247 33.827512 33.638457
33.463035 33.301075 33.152288 33.016286 32.892588 32.780643 32.679839 32.589521
32.509002 32.437576 32.374534 32.319169 32.270789 32.228725 32.192334 32.161010
32.134181 32.111318 32.091931 32.075575 32.061845 32.050378 32.040847 32.032967
32.026484 32.021177 32.016854 32.013352 32.010528 32.008262 32.006455 32.005019
32.003885 32.002994 32.002297 32.001756 32.001337 32.001016 32.000770 32.000584
32.000444 32.000339 32.000262 32.000206 32.000166 32.000139 32.000121 32.000111
32.000105 32.000104 32.000106 32.000111 32.000118 32.000126 32.000136 32.000146
32.000157 32.000169 32.000180 32.000193 32.000204 32.000216 32.000228 32.000239
32.000250 32.000260 32.000269 32.000278 32.000285 32.000291 32.000296 32.000300
32.000303 32.000304 32.000304 32.000303 32.000300 32.000296 32.000291 32.000285
32.000278 32.000269 32.000260 32.000250 32.000239 32.000228 32.000216 32.000204
32.000192 32.000180 32.000168 32.000156 32.000145 32.000134 32.000125 32.000115
32.000108 32.000101 32.000098 32.000096 32.000097 32.000103 32.000115 32.000133
32.000161 32.000201 32.000258 32.000335 32.000440 32.000581 32.000767 32.001013
32.001335 32.001754 32.002296 32.002993 32.003884 32.005018 32.006454 32.008262
32.010527 32.013351 32.016854 32.021176 32.026484 32.032967 32.040847 32.050377
32.061845 32.075575 32.091931 32.111317 32.134181 32.161010 32.192334 32.228725
32.270789 32.319169 32.374534 32.437576 32.509002 32.589521 32.679839 32.780643
32.892588 33.016286 33.152288 33.301075 33.463035 33.638457 33.827512 34.030247
34.246566 34.476231 34.718852 34.973884 35.240626 35.518227 35.805693 36.101892
36.405570 36.715368 37.029837 37.347458 37.666667
38.044444 37.703955 37.365159 37.029726 36.699275 36.375351 36.059406 35.752776
35.456667 35.172143 34.900109 34.641314 34.396337 34.165596 33.949347 33.747687
33.560571 33.387813 33.229108 33.084038 32.952094 32.832686 32.725162 32.628822
32.542935 32.466748 32.399503 32.340447 32.288842 32.243973 32.205157 32.171744
32.143126 32.118739 32.098060 32.080614 32.065968 32.053736 32.043571 32.035165
32.028250 32.022589 32.017979 32.014243 32.011231 32.008815 32.006886 32.005355
32.004146 32.003196 32.002454 32.001877 32.001431 32.001089 32.000828 32.000630
32.000482 32.000372 32.000291 32.000233 32.000193 32.000166 32.000149 32.000140
32.000138 32.000139 32.000145 32.000153 32.000164 32.000176 32.000191 32.000205
32.000222 32.000238 32.000255 32.000272 32.000289 32.000306 32.000323 32.000338