# vtk DataFile Version 3.0
Steady-state temperature (Jacobi)
ASCII
DATASET STRUCTURED_POINTS
DIMENSIONS 181 181 1
ORIGIN 0.0 0.0 0.0
SPACING 0.05 0.05 1.0
POINT_DATA 32761
SCALARS Temperature float 1
LOOKUP_TABLE default
32.000000 32.000000 32.000000 32.000000 32.000000 32.000000 32.000000 32.000000
32.000000 32.000000 32.000000 32.000000 32.000000 32.000000 32.000000 32.000000
32.000000 32.000000 32.000000 32.000000 32.000000 32.000000 32.000000 32.000000
32.000000 32.000000 32.000000 32.000000 32.000000 32.000000 32.000000 32.000000
32.000000 32.000000 32.000000 32.000000 32.000000 32.000000 32.000000 32.000000
32.000000 32.000000 32.000000 32.000000 32.000000 32.000000 32.000000 32.000000
32.000000 32.000000 32.000000 32.000000 32.000000 32.000000 32.000000 32.000000
32.000000 32.000000 32.000000 32.000000 32.000000 32.000000 32.000000 32.000000
32.000000 32.000000 32.000000 32.000000 32.000000 32.000000 32.000000 32.000000
32.000000 32.000000 32.000000 32.000000 32.000000 32.000000 32.000000 32.000000
32.000000 32.000000 32.000000 32.000000 32.000000 32.000000 32.000000 32.000000
32.000000 32.000000 32.000000 32.000000 32.000000 32.000000 32.000000 32.000000
32.000000 32.000000 32.000000 32.000000 32.000000 32.000000 32.000000 32.000000
32.000000 32.000000 32.000000 32.000000 32.000000 32.000000 32.000000 32.000000
32.000000 32.000000 32.000000 32.000000 32.000000 32.000000 32.000000 32.000000
32.000000 32.000000 32.000000 32.000000 32.000000 32.000000 32.000000 32.000000
32.000000 32.000000 32.000000 32.000000 32.000000 32.000000 32.000000 32.000000
32.000000 32.000000 32.000000 32.000000 32.000000 32.000000 32.000000 32.000000
32.000000 32.000000 32.000000 32.000000 32.000000 32.000000 32.000000 32.000000
32.000000 32.000000 32.000000 32.000000 32.000000 32.000000 32.000000 32.000000
32.000000 32.000000 32.000000 32.000000 32.000000 32.000000 32.000000 32.000000
32.000000 32.000000 32.000000 32.000000 32.000000 32.000000 32.000000 32.000000
32.000000 32.000000 32.000000 32.000000 32.000000
32.377778 32.384261 32.390749 32.397247 32.403759 32.410289 32.416842 32.423423
32.430036 32.436685 32.443375 32.450109 32.456891 32.463726 32.470616 32.477566
32.484577 32.491655 32.498800 32.506016 32.513304 32.520668 32.528107 32.535626
32.543223 32.550901 32.558658 32.566498 32.574417 32.582417 32.590496 32.598654
32.606887 32.615196 32.623577 32.632027 32.640543 32.649123 32.657761 32.666454
32.675196 32.683984 32.692809 32.701669 32.710554 32.719460 32.728377 32.737301
32.746221 32.755131 32.764020 32.772881 32.781703 32.790479 32.799197 32.807848
32.816420 32.824904 32.833288 32.841563 32.849716 32.857737 32.865613 32.873335
32.880890 32.888267 32.895455 32.902443 32.909218 32.915772 32.922092 32.928168
32.933990 32.939548 32.944832 32.949833 32.954542 32.958951 32.963050 32.966835
32.970296 32.973427 32.976223 32.978679 32.980790 32.982551 32.983959 32.985012
32.985708 32.986045 32.986023 32.985641 32.984901 32.983803 32.982350 32.980545
32.978391 32.975892 32.973054 32.969880 32.966378 32.962554 32.958415 32.953967
32.949221 32.944184 32.938865 32.933273 32.927419 32.921311 32.914962 32.908381
32.901579 32.894568 32.887358 32.879960 32.872387 32.864649 32.856759 32.848727
32.840565 32.832284 32.823896 32.815411 32.806840 32.798195 32.789485 32.780720
32.771912 32.763069 32.754201 32.745317 32.736425 32.727534 32.718653 32.709788
32.700947 32.692136 32.683364 32.674634 32.665954 32.657327 32.648761 32.640257
32.631822 32.623458 32.615169 32.606956 32.598824 32.590774 32.582807 32.574925
32.567130 32.559420 32.551797 32.544260 32.536809 32.529443 32.522162 32.514963
32.507845 32.500805 32.493843 32.486954 32.480138 32.473389 32.466705 32.460083
32.453520 32.447010 32.440552 32.434139 32.427769 32.421436 32.415137 32.408866
32.402619 32.396392 32.390179 32.383976 32.377778
32.755556 32.768526 32.781506 32.794505 32.807531 32.820595 32.833706 32.846871
32.860101 32.873403 32.886786 32.900258 32.913827 32.927501 32.941286 32.955189
32.969218 32.983376 32.997672 33.012108 33.026691 33.041423 33.056309 33.071350
33.086552 33.101912 33.117436 33.133120 33.148967 33.164973 33.181139 33.197461
33.213938 33.230562 33.247333 33.264241 33.281284 33.298452 33.315739 33.333133
33.350629 33.368213 33.385876 33.403604 33.421388 33.439209 33.457058 33.474915
33.492769 33.510599 33.528391 33.546125 33.563785 33.581348 33.598798 33.616111
33.633270 33.650251 33.667035 33.683597 33.699917 33.715971 33.731739 33.747195
33.762319 33.777086 33.791475 33.805462 33.819027 33.832145 33.844798 33.856961
33.868617 33.879743 33.890322 33.900334 33.909761 33.918587 33.926796 33.934371
33.941301 33.947570 33.953169 33.958085 33.962311 33.965836 33.968657 33.970765
33.972158 33.972833 33.972788 33.972024 33.970541 33.968344 33.965435 33.961822
33.957509 33.952507 33.946823 33.940470 33.933459 33.925803 33.917515 33.908613
33.899110 33.889026 33.878377 33.867184 33.855463 33.843238 33.830526 33.817353
33.803736 33.789700 33.775266 33.760459 33.745299 33.729811 33.714016 33.697939
33.681600 33.665026 33.648235 33.631252 33.614097 33.596793 33.579359 33.561819
33.544188 33.526490 33.508741 33.490961 33.473164 33.455372 33.437596 33.419855
33.402161 33.384531 33.366973 33.349505 33.332133 33.314872 33.297728 33.280713
33.263832 33.247096 33.230508 33.214076 33.197803 33.181696 33.165754 33.149984
33.134384 33.118959 33.103706 33.088627 33.073719 33.058982 33.044413 33.030010
33.015768 33.001685 32.987754 32.973973 32.960334 32.946833 32.933461 32.920214
32.907082 32.894060 32.881138 32.868310 32.855565 32.842896 32.830294 32.817749
32.805252 32.792794 32.780365 32.767955 32.755556
33.133333 33.152798 33.172277 33.191783 33.211332 33.230937 33.250611 33.270369
33.290223 33.310186 33.330270 33.350489 33.370852 33.391374 33.412062 33.432929
33.453982 33.475233 33.496687 33.518356 33.540242 33.562355 33.584696 33.607275
33.630091 33.653149 33.676448 33.699993 33.723779 33.747808 33.772074 33.796578
33.821311 33.846270 33.871445 33.896832 33.922417 33.948194 33.974146 34.000265
34.026531 34.052935 34.079455 34.106077 34.132777 34.159540 34.186340 34.213158
34.239967 34.266745 34.293463 34.320098 34.346617 34.372997 34.399203 34.425209
34.450979 34.476486 34.501694 34.526573 34.551086 34.575203 34.598886 34.622106
34.644823 34.667008 34.688623 34.709637 34.730014 34.749724 34.768731 34.787007
34.804517 34.821235 34.837128 34.852171 34.866335 34.879597 34.891930 34.903313
34.913724 34.923146 34.931557 34.938945 34.945294 34.950592 34.954830 34.957998
34.960091 34.961105 34.961038 34.959890 34.957663 34.954361 34.949991 34.944560
34.938081 34.930565 34.922026 34.912479 34.901945 34.890441 34.877990 34.864613
34.850337 34.835185 34.819186 34.802367 34.784760 34.766391 34.747296 34.727503
34.707048 34.685961 34.664280 34.642034 34.619262 34.595994 34.572270 34.548118
34.523579 34.498681 34.473463 34.447953 34.422188 34.396197 34.370016 34.343670
34.317194 34.290613 34.263959 34.237256 34.210533 34.183812 34.157122 34.130480
34.103913 34.077437 34.051077 34.024846 33.998766 33.972847 33.947109 33.921561
33.896220 33.871091 33.846190 33.821520 33.797093 33.772910 33.748982 33.725306
33.701892 33.678735 33.655841 33.633205 33.610830 33.588709 33.566843 33.545223
33.523849 33.502710 33.481804 33.461119 33.440650 33.420385 33.400318 33.380436
33.360729 33.341185 33.321794 33.302541 33.283416 33.264403 33.245491 33.226665
33.207912 33.189216 33.170564 33.151941 33.133333
33.511111 33.537080 33.563068 33.589094 33.615176 33.641332 33.667582 33.693942
33.720432 33.747066 33.773864 33.800840 33.828012 33.855392 33.882998 33.910840
33.938934 33.967289 33.995920 34.024833 34.054041 34.083548 34.113366 34.143495
34.173947 34.204718 34.235817 34.267238 34.298987 34.331057 34.363450 34.396155
34.429172 34.462486 34.496096 34.529983 34.564141 34.598550 34.633201 34.668068
34.703141 34.738392 34.773804 34.809348 34.845004 34.880738 34.916529 34.952339
34.988144 35.023903 35.059589 35.095159 35.130581 35.165812 35.200818 35.235552
35.269979 35.304049 35.337725 35.370958 35.403708 35.435925 35.467569 35.498589
35.528943 35.558582 35.587465 35.615542 35.642772 35.669107 35.694508 35.718928
35.742330 35.764669 35.785910 35.806012 35.824943 35.842665 35.859150 35.874362
35.888278 35.900869 35.912113 35.921986 35.930473 35.937554 35.943218 35.947453
35.950251 35.951607 35.951517 35.949982 35.947006 35.942593 35.936752 35.929495
35.920835 35.910789 35.899376 35.886618 35.872538 35.857165 35.840523 35.822647
35.803567 35.783320 35.761938 35.739464 35.715933 35.691390 35.665871 35.639425
35.612091 35.583918 35.554946 35.525226 35.494798 35.463715 35.432016 35.399753
35.366967 35.333710 35.300018 35.265945 35.231527 35.196813 35.161839 35.126653
35.091288 35.055790 35.020190 34.984531 34.948841 34.913161 34.877515 34.841943
34.806465 34.771117 34.735917 34.700896 34.666072 34.631471 34.597106 34.563002
34.529168 34.495626 34.462382 34.429453 34.396844 34.364568 34.332625 34.301028
34.269773 34.238869 34.208311 34.178104 34.148239 34.118720 34.089537 34.060688
34.032162 34.003956 33.976056 33.948456 33.921142 33.894104 33.867326 33.840798
33.814503 33.788427 33.762553 33.736867 33.711348 33.685982 33.660749 33.635632
33.610611 33.585668 33.560783 33.535937 33.511111
33.888889 33.921376 33.953887 33.986446 34.019074 34.051797 34.084636 34.117615
34.150754 34.184077 34.217603 34.251354 34.285348 34.319607 34.354145 34.388983
34.424133 34.459615 34.495437 34.531619 34.568165 34.605093 34.642405 34.680113
34.718220 34.756734 34.795652 34.834983 34.874718 34.914863 34.955406 34.996348
35.037675 35.079383 35.121455 35.163883 35.206645 35.249730 35.293110 35.336773
35.380686 35.424832 35.469173 35.513689 35.558338 35.603096 35.647919 35.692775
35.737618 35.782415 35.827112 35.871674 35.916046 35.960187 36.004040 36.047562
36.090692 36.133386 36.175579 36.217227 36.258263 36.298640 36.338293 36.377173
36.415213 36.452364 36.488563 36.523758 36.557887 36.590901 36.622739 36.653354
36.682689 36.710696 36.737324 36.762529 36.786261 36.808483 36.829149 36.848225
36.865671 36.881460 36.895557 36.907939 36.918579 36.927460 36.934562 36.939873
36.943381 36.945081 36.944969 36.943045 36.939314 36.933780 36.926457 36.917358
36.906500 36.893903 36.879594 36.863597 36.845945 36.826668 36.805806 36.783393
36.759473 36.734087 36.707285 36.679108 36.649613 36.618843 36.586858 36.553705
36.519446 36.484130 36.447821 36.410568 36.372436 36.333477 36.293756 36.253322
36.212241 36.170562 36.128350 36.085652 36.042532 35.999035 35.955223 35.911138
35.866839 35.822366 35.777776 35.733105 35.688405 35.643711 35.599071 35.554515
35.510088 35.465817 35.421741 35.377884 35.334281 35.290952 35.247929 35.205225
35.162870 35.120872 35.079258 35.038032 34.997214 34.956808 34.916828 34.877274
34.838158 34.799474 34.761232 34.723422 34.686051 34.649105 34.612587 34.576483
34.540790 34.505492 34.470583 34.436046 34.401870 34.368038 34.334536 34.301343
34.268446 34.235821 34.203451 34.171314 34.139390 34.107654 34.076088 34.044665
34.013364 33.982159 33.951029 33.919946 33.888889
34.266667 34.305690 34.344742 34.383850 34.423044 34.462350 34.501797 34.541411
34.581220 34.621248 34.661524 34.702067 34.742907 34.784062 34.825557 34.867409
34.909642 34.952269 34.995314 35.038784 35.082701 35.127070 35.171909 35.217220
35.263018 35.309299 35.356076 35.403343 35.451105 35.499353 35.548091 35.597302
35.646986 35.697121 35.747705 35.798710 35.850128 35.901928 35.954095 36.006593
36.059405 36.112489 36.165821 36.219355 36.273063 36.326894 36.380814 36.434769
36.488720 36.542606 36.596387 36.649997 36.703391 36.756500 36.809275 36.861644
36.913554 36.964930 37.015718 37.065840 37.115239 37.163838 37.211575 37.258375
37.304175 37.348898 37.392484 37.434856 37.475954 37.515703 37.554045 37.590908
37.626237 37.659963 37.692034 37.722387 37.750973 37.777734 37.802628 37.825602
37.846619 37.865635 37.882617 37.897531 37.910350 37.921046 37.929603 37.936000
37.940228 37.942276 37.942142 37.939825 37.935330 37.928666 37.919844 37.908884
37.895805 37.880634 37.863398 37.844131 37.822868 37.799653 37.774524 37.747532
37.718722 37.688152 37.655871 37.621942 37.586420 37.549371 37.510853 37.470938
37.429684 37.387168 37.343448 37.298603 37.252694 37.205799 37.157979 37.109312
37.059860 37.009700 36.958891 36.907509 36.855612 36.803273 36.750547 36.697505
36.644199 36.590696 36.537044 36.483307 36.429529 36.375770 36.322068 36.268480
36.215039 36.161798 36.108785 36.056047 36.003608 35.951510 35.899772 35.848430
35.797500 35.747013 35.696977 35.647421 35.598348 35.549781 35.501719 35.454181
35.407161 35.360672 35.314706 35.269271 35.224355 35.179961 35.136074 35.092694
35.049802 35.007392 34.965446 34.923952 34.882890 34.842245 34.801994 34.762120
34.722597 34.683406 34.644519 34.605915 34.567565 34.529445 34.491526 34.453781
34.416182 34.378701 34.341307 34.303972 34.266667
34.644444 34.690024 34.735637 34.781317 34.827095 34.873007 34.919082 34.965355
35.011854 35.058613 35.105658 35.153022 35.200727 35.248807 35.297281 35.346178
35.395517 35.445324 35.495612 35.546408 35.597720 35.649570 35.701963 35.754918
35.808435 35.862529 35.917195 35.972445 36.028268 36.084671 36.141639 36.199173
36.257252 36.315874 36.375011 36.434655 36.494773 36.555352 36.616353 36.677757
36.739518 36.801613 36.863989 36.926618 36.989441 37.052423 37.115502 37.178636
37.241758 37.304820 37.367750 37.430495 37.492980 37.555146 37.616912 37.678218
37.738979 37.799131 37.858585 37.917274 37.975109 38.032020 38.087915 38.142725
38.196358 38.248741 38.299786 38.349420 38.397555 38.444121 38.489032 38.532222
38.573607 38.613123 38.650695 38.686262 38.719753 38.751114 38.780281 38.807205
38.831832 38.854118 38.874018 38.891497 38.906519 38.919057 38.929084 38.936583
38.941538 38.943939 38.943783 38.941068 38.935801 38.927991 38.917655 38.904811
38.889485 38.871706 38.851509 38.828931 38.804018 38.776812 38.747370 38.715741
38.681989 38.646169 38.608352 38.568599 38.526988 38.483583 38.438466 38.391707
38.343390 38.293587 38.242387 38.189861 38.136102 38.081180 38.025189 37.968198
37.910302 37.851568 37.792089 37.731932 37.671185 37.609914 37.548205 37.486117
37.423735 37.361115 37.298336 37.235449 37.172529 37.109622 37.046799 36.984100
36.921589 36.859303 36.797299 36.735607 36.674281 36.613345 36.552845 36.492800
36.433251 36.374211 36.315714 36.257769 36.200404 36.143621 36.087443 36.031867
35.976912 35.922569 35.868850 35.815744 35.763256 35.711371 35.660090 35.609394
35.559279 35.509722 35.460715 35.412232 35.364261 35.316773 35.269752 35.223168
35.177000 35.131216 35.085793 35.040697 34.995902 34.951374 34.907083 34.862996
34.819080 34.775300 34.731624 34.688017 34.644444
35.022222 35.074382 35.126580 35.178854 35.231244 35.283784 35.336514 35.389469
35.442687 35.496199 35.550044 35.604250 35.658855 35.713884 35.769371 35.825339
35.881821 35.938833 35.996407 36.054556 36.113306 36.172667 36.232661 36.293292
36.354579 36.416519 36.479129 36.542400 36.606341 36.670939 36.736198 36.802098
36.868639 36.935792 37.003553 37.071885 37.140779 37.210191 37.280104 37.350469
37.421263 37.492429 37.563936 37.635724 37.707753 37.779955 37.852287 37.924672
37.997062 38.069375 38.141554 38.213513 38.285190 38.356494 38.427358 38.497684
38.567403 38.636414 38.704642 38.771984 38.838362 38.903671 38.967831 39.030737
39.092306 39.152434 39.211039 39.268018 39.323288 39.376751 39.428325 39.477915
39.525444 39.570822 39.613976 39.654821 39.693291 39.729308 39.762814 39.793738
39.822029 39.847629 39.870491 39.890570 39.907829 39.922232 39.933754 39.942369
39.948062 39.950822 39.950643 39.947526 39.941476 39.932506 39.920631 39.905878
39.888272 39.867850 39.844649 39.818716 39.790098 39.758852 39.725032 39.688708
39.649940 39.608805 39.565372 39.519725 39.471937 39.422101 39.370292 39.316609
39.261131 39.203959 39.145177 39.084886 39.023172 38.960139 38.895869 38.830469
38.764021 38.696629 38.628372 38.559355 38.489653 38.419366 38.348568 38.277355
38.205794 38.133978 38.061971 37.989859 37.917699 37.845574 37.773535 37.701657
37.629985 37.558589 37.487507 37.416802 37.346506 37.276676 37.207335 37.138535
37.070292 37.002650 36.935622 36.869242 36.803517 36.738476 36.674120 36.610469
36.547519 36.485287 36.423760 36.362950 36.302839 36.243433 36.184711 36.126671
36.069289 36.012557 35.956449 35.900951 35.846033 35.791678 35.737853 35.684535
35.631689 35.579290 35.527301 35.475692 35.424424 35.373466 35.322778 35.272325
35.222067 35.171968 35.121986 35.072085 35.022222
35.400000 35.458767 35.517577 35.576474 35.635500 35.694699 35.754110 35.813778
35.873740 35.934039 35.994710 36.055795 36.117326 36.179342 36.241871 36.304950
36.368604 36.432867 36.497757 36.563307 36.629528 36.696451 36.764080 36.832442
36.901537 36.971384 37.041977 37.113332 37.185435 37.258296 37.331894 37.406233
37.481286 37.557049 37.633487 37.710591 37.788317 37.866650 37.945538 38.024957
38.104850 38.185184 38.265894 38.346942 38.428252 38.509780 38.591444 38.673192
38.754933 38.836610 38.918126 38.999416 39.080378 39.160939 39.240993 39.320462
39.399234 39.477227 39.554327 39.630444 39.705464 39.779294 39.851817 39.922940
39.992544 40.060536 40.126797 40.191235 40.253734 40.314203 40.372529 40.428624
40.482381 40.533717 40.582530 40.628743 40.672262 40.713016 40.750922 40.785916
40.817926 40.846896 40.872765 40.895489 40.915019 40.931320 40.944358 40.954110
40.960554 40.963679 40.963478 40.959951 40.953106 40.942955 40.929520 40.912825
40.892905 40.869796 40.843546 40.814201 40.781823 40.746468 40.708209 40.667110
40.623255 40.576718 40.527590 40.475952 40.421904 40.365532 40.306942 40.246225
40.183493 40.118838 40.052377 39.984203 39.914436 39.843170 39.770524 39.696592
39.621493 39.545319 39.468188 39.390188 39.311434 39.232011 39.152030 39.071571
38.990740 38.909613 38.828290 38.746839 38.665357 38.583903 38.502568 38.421405
38.340496 38.259889 38.179659 38.099843 38.020511 37.941693 37.863450 37.785806
37.708812 37.632486 37.556872 37.481980 37.407846 37.334474 37.261892 37.190097
37.119111 37.048924 36.979551 36.910976 36.843207 36.776224 36.710026 36.644590
36.579910 36.515956 36.452717 36.390160 36.328268 36.267004 36.206347 36.146258
36.086709 36.027659 35.969079 35.910923 35.853158 35.795739 35.738630 35.681783
35.625159 35.568712 35.512401 35.456178 35.400000
35.777778 35.843182 35.908635 35.974184 36.039879 36.105764 36.171890 36.238300
36.305042 36.372157 36.439693 36.507687 36.576184 36.645218 36.714833 36.785056
36.855930 36.927476 36.999734 37.072719 37.146468 37.220990 37.296315 37.372449
37.449415 37.527211 37.605858 37.685343 37.765682 37.846856 37.928873 38.011705
38.095354 38.179785 38.264991 38.350929 38.437585 38.524906 38.612869 38.701416
38.790514 38.880095 38.970119 39.060509 39.151218 39.242159 39.333277 39.424478
39.515698 39.606835 39.697819 39.788539 39.878919 39.968841 40.058222 40.146940
40.234905 40.321990 40.408099 40.493104 40.576904 40.659368 40.740392 40.819843
40.897618 40.973583 41.047633 41.119637 41.189492 41.257070 41.322269 41.384968
41.445068 41.502453 41.557031 41.608695 41.657359 41.702926 41.745317 41.784447
41.820247 41.852643 41.881577 41.906990 41.928836 41.947068 41.961653 41.972561
41.979770 41.983267 41.983044 41.979101 41.971446 41.960096 41.945070 41.926401
41.904122 41.878281 41.848923 41.816111 41.779902 41.740372 41.697588 41.651640
41.602603 41.550578 41.495651 41.437929 41.377507 41.314501 41.249009 41.181155
41.111041 41.038796 40.964524 40.888358 40.810402 40.730792 40.649631 40.567055
40.483167 40.398100 40.311955 40.224863 40.136919 40.048252 39.958952 39.869143
39.778910 39.688370 39.597602 39.506716 39.415784 39.324910 39.234157 39.143622
39.053361 38.963460 38.873969 38.784965 38.696490 38.608613 38.521366 38.434810
38.348970 38.263897 38.179607 38.096145 38.013517 37.931760 37.850874 37.770885
37.691788 37.613602 37.536312 37.459931 37.384438 37.309838 37.236106 37.163237
37.091203 37.019992 36.949571 36.879923 36.811008 36.742806 36.675273 36.608383
36.542090 36.476362 36.411152 36.346422 36.282125 36.218219 36.154653 36.091386
36.028364 35.965543 35.902871 35.840300 35.777778
36.155556 36.227630 36.299759 36.371994 36.444389 36.516998 36.589870 36.663060
36.736615 36.810587 36.885019 36.959965 37.035462 37.111561 37.188296 37.265713
37.343842 37.422727 37.502390 37.582871 37.664186 37.746371 37.829435 37.913409
37.998293 38.084112 38.170861 38.258557 38.347185 38.436758 38.527250 38.618667
38.710975 38.804171 38.898212 38.993087 39.088744 39.185162 39.282279 39.380067
39.478455 39.577403 39.676830 39.776690 39.876892 39.977379 40.078051 40.178843
40.279646 40.380387 40.480947 40.581245 40.681157 40.780591 40.879417 40.977537
41.074815 41.171146 41.266390 41.360437 41.453143 41.544394 41.634044 41.721977
41.808046 41.892133 41.974094 42.053810 42.131139 42.205966 42.278152 42.347586
42.414135 42.477693 42.538135 42.595364 42.649263 42.699742 42.746698 42.790051
42.829710 42.865605 42.897662 42.925822 42.950026 42.970231 42.986392 42.998481
43.006471 43.010348 43.010102 43.005735 42.997256 42.984680 42.968035 42.947350
42.922670 42.894039 42.861518 42.825165 42.785057 42.741263 42.693876 42.642976
42.588668 42.531043 42.470217 42.406290 42.339387 42.269615 42.197107 42.121977
42.044363 41.964382 41.882178 41.797869 41.711601 41.623493 41.533694 41.442319
41.349517 41.255402 41.160120 41.063780 40.966526 40.868462 40.769726 40.670417
40.570666 40.470567 40.370243 40.269780 40.169294 40.068861 39.968592 39.868552
39.768843 39.669522 39.570681 39.472368 39.374667 39.277616 39.181287 39.085711
38.990952 38.897029 38.803996 38.711867 38.620683 38.530451 38.441203 38.352936
38.265675 38.179409 38.094155 38.009893 37.926632 37.844347 37.763037 37.682673
37.603246 37.524719 37.447079 37.370285 37.294314 37.219122 37.144682 37.070944
36.997875 36.925425 36.853555 36.782211 36.711351 36.640919 36.570869 36.501145
36.431697 36.362467 36.293405 36.224452 36.155556
36.533333 36.612114 36.690954 36.769911 36.849045 36.928412 37.008071 37.088075
37.168485 37.249348 37.330724 37.412657 37.495203 37.578404 37.662311 37.746961
37.832403 37.918666 38.005796 38.093814 38.182763 38.272656 38.363531 38.455393
38.548273 38.642168 38.737102 38.833065 38.930072 39.028104 39.127168 39.227235
39.328304 39.430336 39.533322 39.637211 39.741985 39.847583 39.953978 40.061096
40.168902 40.277312 40.386279 40.495710 40.605547 40.715687 40.826062 40.936559
41.047100 41.157562 41.267859 41.377859 41.487466 41.596540 41.704979 41.812634
41.919394 42.025107 42.129656 42.232883 42.334666 42.434843 42.533289 42.629842
42.724373 42.816720 42.906755 42.994317 43.079278 43.161483 43.240806 43.317097
43.390236 43.460082 43.526520 43.589417 43.648670 43.704157 43.755783 43.803442
43.847049 43.886513 43.921765 43.952728 43.979346 44.001563 44.019338 44.032633
44.041422 44.045687 44.045419 44.040620 44.031298 44.017473 43.999170 43.976429
43.949292 43.917816 43.882058 43.842096 43.797998 43.749860 43.697764 43.641819
43.582120 43.518790 43.451934 43.381686 43.308161 43.231501 43.151828 43.069292
42.984021 42.896171 42.805871 42.713282 42.618535 42.521791 42.423182 42.322870
42.220983 42.117682 42.013091 41.907370 41.800635 41.693042 41.584702 41.475764
41.366333 41.256551 41.146512 41.036352 40.926158 40.816054 40.706119 40.596467
40.487168 40.378325 40.269999 40.162283 40.055226 39.948912 39.843379 39.738701
39.634906 39.532057 39.430172 39.329305 39.229463 39.130689 39.032984 38.936378
38.840864 38.746463 38.653160 38.560967 38.469859 38.379842 38.290883 38.202979
38.116091 38.030209 37.945288 37.861309 37.778224 37.696007 37.614605 37.533985
37.454091 37.374886 37.296310 37.218320 37.140854 37.063865 36.987290 36.911077
36.835164 36.759494 36.684006 36.608639 36.533333
36.911111 36.996637 37.082227 37.167945 37.253855 37.340022 37.426504 37.513369
37.600670 37.688473 37.776828 37.865800 37.955434 38.045792 38.136912 38.228854
38.321650 38.415356 38.509997 38.605622 38.702252 38.799929 38.898665 38.998496
39.099426 39.201484 39.304663 39.408986 39.514436 39.621027 39.728732 39.837557
39.947462 40.058445 40.170456 40.283481 40.397460 40.512367 40.628132 40.744719
40.862043 40.980060 41.098674 41.217828 41.337414 41.457366 41.577564 41.697931
41.818336 41.938692 42.058858 42.178736 42.298178 42.417074 42.535267 42.652641
42.769032 42.884314 42.998319 43.110913 43.221925 43.331216 43.438611 43.543969
43.647114 43.747903 43.846161 43.941745 44.034483 44.124235 44.210834 44.294144
44.374005 44.450288 44.522842 44.591547 44.656264 44.716882 44.773276 44.825348
44.872988 44.916111 44.954626 44.988463 45.017549 45.041830 45.061255 45.075786
45.085393 45.090056 45.089767 45.084525 45.074341 45.059236 45.039240 45.014392
44.984745 44.950353 44.911290 44.867627 44.819457 44.766866 44.709964 44.648850
44.583650 44.514477 44.441471 44.364752 44.284473 44.200764 44.113786 44.023676
43.930603 43.834707 43.736162 43.635112 43.531733 43.426169 43.318598 43.209161
43.098037 42.985362 42.871313 42.756022 42.639659 42.522352 42.404266 42.285518
42.166268 42.046626 41.926740 41.806712 41.686683 41.566742 41.447021 41.327598
41.208595 41.090080 40.972161 40.854896 40.738383 40.622669 40.507839 40.393928
40.281012 40.169114 40.058298 39.948577 39.840004 39.732581 39.626350 39.521304
39.417474 39.314845 39.213435 39.113223 39.014216 38.916385 38.819728 38.724208
38.629815 38.536506 38.444262 38.353034 38.262795 38.173492 38.085091 37.997534
37.910780 37.824767 37.739451 37.654765 37.570660 37.487069 37.403935 37.321192
37.238780 37.156630 37.074680 36.992862 36.911111
37.288889 37.381200 37.473582 37.566102 37.658832 37.751838 37.845191 37.938953
38.033196 38.127977 38.223367 38.319418 38.416197 38.513752 38.612148 38.711424
38.811642 38.912836 39.015060 39.118341 39.222730 39.328242 39.434923 39.542780
39.651850 39.762131 39.873652 39.986401 40.100398 40.215621 40.332079 40.449738
40.568600 40.688617 40.809781 40.932033 41.055352 41.179667 41.304946 41.431105
41.558101 41.685837 41.814258 41.943254 42.072759 42.202649 42.332847 42.463217
42.593670 42.724061 42.854286 42.984190 43.113660 43.242531 43.370679 43.497931
43.624154 43.749168 43.872831 43.994959 44.115404 44.233976 44.350523 44.464854
44.576813 44.686208 44.792885 44.896653 44.997357 45.094812 45.188868 45.279345
45.366098 45.448958 45.527787 45.602427 45.672751 45.738615 45.799903 45.856488
45.908269 45.955136 45.997003 46.033781 46.065401 46.091796 46.112915 46.128713
46.139160 46.144232 46.143921 46.138226 46.127159 46.110743 46.089009 46.062005
46.029781 45.992406 45.949949 45.902503 45.850152 45.793007 45.731172 45.664775
45.593932 45.518788 45.439473 45.356145 45.268942 45.178036 45.083573 44.985733
44.884668 44.780565 44.673579 44.563903 44.451692 44.337140 44.220403 44.101676
43.981109 43.858896 43.735184 43.610161 43.483969 43.356790 43.228757 43.100047
42.970783 42.841133 42.711211 42.581174 42.451127 42.321215 42.191532 42.062212
41.933336 41.805028 41.677356 41.550431 41.424310 41.299092 41.174820 41.051580
40.929406 40.808370 40.688493 40.569837 40.452411 40.336263 40.221394 40.107839
39.995587 39.884665 39.775051 39.666761 39.559763 39.454064 39.349624 39.246438
39.144462 39.043680 38.944041 38.845520 38.748060 38.651630 38.556168 38.461634
38.367962 38.275105 38.182994 38.091578 38.000784 37.910554 37.820815 37.731505
37.642550 37.553884 37.465431 37.377124 37.288889
37.666667 37.765807 37.865023 37.964390 38.063982 38.163875 38.264139 38.364852
38.466077 38.567892 38.670357 38.773545 38.877512 38.982329 39.088044 39.194724
39.302411 39.411166 39.521024 39.632041 39.744241 39.857675 39.972358 40.088334
40.205606 40.324211 40.444141 40.565424 40.688042 40.812011 40.937301 41.063919
41.191823 41.321008 41.451418 41.583038 41.715798 41.849670 41.984573 42.120464
42.257248 42.394872 42.533225 42.672240 42.811795 42.951810 43.092148 43.232716
43.373366 43.513991 43.654431 43.794569 43.934231 44.073289 44.211561 44.348908
44.485138 44.620103 44.753605 44.885487 45.015546 45.143620 45.269501 45.393023
45.513978 45.632195 45.747469 45.859630 45.968473 46.073833 46.175512 46.273347
46.367149 46.456764 46.542014 46.622753 46.698817 46.770074 46.836374 46.897601
46.953624 47.004341 47.049644 47.089448 47.123667 47.152236 47.175093 47.192195
47.203504 47.208998 47.208664 47.202505 47.190532 47.172769 47.149254 47.120032
47.085167 47.044725 46.998792 46.947453 46.890820 46.828995 46.762109 46.690282
46.613662 46.532384 46.446614 46.356498 46.262215 46.163920 46.061806 45.956034
45.846805 45.734285 45.618681 45.500163 45.378939 45.255181 45.129097 45.000856
44.870667 44.738694 44.605141 44.470166 44.333970 44.196702 44.058554 43.919668
43.780228 43.640363 43.500249 43.360002 43.219788 43.079712 42.939926 42.800523
42.661642 42.523364 42.385815 42.249061 42.113216 41.978333 41.844511 41.711792
41.580260 41.449944 41.320915 41.193189 41.066826 40.941829 40.818243 40.696062
40.575318 40.455994 40.338111 40.221641 40.106593 39.992931 39.880653 39.769715
39.660104 39.551768 39.444686 39.338798 39.234073 39.130448 39.027882 38.926307
38.825676 38.725916 38.626973 38.528770 38.431248 38.334329 38.237948 38.142024
38.046488 37.951260 37.856266 37.761427 37.666667
38.044444 38.150460 38.256557 38.362815 38.469318 38.576141 38.683369 38.791074
38.899338 39.008230 39.117830 39.228200 39.339420 39.451544 39.564648 39.678780
39.794010 39.910378 40.027950 40.146757 40.266857 40.388271 40.511052 40.635209
40.760786 40.887783 41.016233 41.146124 41.277481 41.410278 41.544528 41.680193
41.817276 41.955723 42.095526 42.236617 42.378974 42.522516 42.667207 42.812951
42.959698 43.107338 43.255808 43.404982 43.554781 43.705068 43.855749 44.006671
44.157728 44.308754 44.459627 44.610170 44.760250 44.909675 45.058302 45.205929
45.352401 45.497509 45.641086 45.782918 45.922830 46.060602 46.196056 46.328966
46.459151 46.586385 46.710486 46.831231 46.948436 47.061886 47.171400 47.276769
47.377822 47.474357 47.566213 47.653203 47.735176 47.811963 47.883425 47.949413