# vtk DataFile Version 3.0
Steady-state temperature (Jacobi)
ASCII
DATASET STRUCTURED_POINTS
DIMENSIONS 181 181 1
ORIGIN 0.0 0.0 0.0
SPACING 0.05 0.05 1.0
POINT_DATA 32761
SCALARS Temperature float 1
LOOKUP_TABLE default
32.000000 32.000000 32.000000 32.000000 32.000000 32.000000 32.000000 32.000000
32.000000 32.000000 32.000000 32.000000 32.000000 32.000000 32.000000 32.000000
32.000000 32.000000 32.000000 32.000000 32.000000 32.000000 32.000000 32.000000
32.000000 32.000000 32.000000 32.000000 32.000000 32.000000 32.000000 32.000000
32.000000 32.000000 32.000000 32.000000 32.000000 32.000000 32.000000 32.000000
32.000000 32.000000 32.000000 32.000000 32.000000 32.000000 32.000000 32.000000
32.000000 32.000000 32.000000 32.000000 32.000000 32.000000 32.000000 32.000000
32.000000 32.000000 32.000000 32.000000 32.000000 32.000000 32.000000 32.000000
32.000000 32.000000 32.000000 32.000000 32.000000 32.000000 32.000000 32.000000
32.000000 32.000000 32.000000 32.000000 32.000000 32.000000 32.000000 32.000000
32.000000 32.000000 32.000000 32.000000 32.000000 32.000000 32.000000 32.000000
32.000000 32.000000 32.000000 32.000000 32.000000 32.000000 32.000000 32.000000
32.000000 32.000000 32.000000 32.000000 32.000000 32.000000 32.000000 32.000000
32.000000 32.000000 32.000000 32.000000 32.000000 32.000000 32.000000 32.000000
32.000000 32.000000 32.000000 32.000000 32.000000 32.000000 32.000000 32.000000
32.000000 32.000000 32.000000 32.000000 32.000000 32.000000 32.000000 32.000000
32.000000 32.000000 32.000000 32.000000 32.000000 32.000000 32.000000 32.000000
32.000000 32.000000 32.000000 32.000000 32.000000 32.000000 32.000000 32.000000
32.000000 32.000000 32.000000 32.000000 32.000000 32.000000 32.000000 32.000000
32.000000 32.000000 32.000000 32.000000 32.000000 32.000000 32.000000 32.000000
32.000000 32.000000 32.000000 32.000000 32.000000 32.000000 32.000000 32.000000
32.000000 32.000000 32.000000 32.000000 32.000000 32.000000 32.000000 32.000000
32.000000 32.000000 32.000000 32.000000 32.000000
32.377778 32.389701 32.401625 32.413552 32.425482 32.437419 32.449361 32.461312
32.473271 32.485240 32.497220 32.509212 32.521216 32.533234 32.545266 32.557312
32.569373 32.581449 32.593540 32.605646 32.617766 32.629901 32.642049 32.654209
32.666381 32.678564 32.690755 32.702954 32.715157 32.727364 32.739571 32.751776
32.763975 32.776167 32.788346 32.800510 32.812655 32.824775 32.836867 32.848925
32.860945 32.872920 32.884845 32.896715 32.908522 32.920260 32.931923 32.943502
32.954991 32.966382 32.977667 32.988838 32.999886 33.010803 33.021581 33.032209
33.042680 33.052983 33.063109 33.073050 33.082794 33.092334 33.101657 33.110757
33.119621 33.128241 33.136607 33.144710 33.152540 33.160088 33.167344 33.174301
33.180948 33.187279 33.193284 33.198956 33.204287 33.209270 33.213899 33.218168
33.222069 33.225599 33.228752 33.231523 33.233910 33.235908 33.237514 33.238727
33.239544 33.239965 33.239990 33.239617 33.238848 33.237683 33.236126 33.234177
33.231840 33.229119 33.226017 33.222538 33.218688 33.214473 33.209897 33.204968
33.199692 33.194077 33.188130 33.181858 33.175271 33.168376 33.161182 33.153698
33.145934 33.137899 33.129602 33.121052 33.112261 33.103236 33.093989 33.084528
33.074864 33.065006 33.054965 33.044749 33.034368 33.023831 33.013148 33.002327
32.991379 32.980310 32.969129 32.957846 32.946467 32.935000 32.923453 32.911834
32.900148 32.888403 32.876606 32.864761 32.852875 32.840954 32.829002 32.817025
32.805028 32.793014 32.780987 32.768952 32.756912 32.744871 32.732830 32.720794
32.708763 32.696742 32.684730 32.672731 32.660746 32.648775 32.636821 32.624883
32.612963 32.601061 32.589176 32.577310 32.565462 32.553632 32.541819 32.530023
32.518244 32.506479 32.494730 32.482994 32.471271 32.459558 32.447856 32.436163
32.424477 32.412797 32.401121 32.389449 32.377778
32.755556 32.779402 32.803252 32.827106 32.850969 32.874842 32.898729 32.922631
32.946550 32.970490 32.994451 33.018436 33.042447 33.066484 33.090550 33.114644
33.138768 33.162922 33.187106 33.211320 33.235564 33.259835 33.284134 33.308459
33.332806 33.357175 33.381561 33.405961 33.430373 33.454790 33.479209 33.503623
33.528028 33.552415 33.576780 33.601114 33.625408 33.649655 33.673845 33.697968
33.722014 33.745972 33.769830 33.793577 33.817199 33.840684 33.864017 33.887184
33.910171 33.932962 33.955541 33.977892 33.999999 34.021843 34.043407 34.064674
34.085625 34.106242 34.126505 34.146396 34.165896 34.184985 34.203643 34.221851
34.239591 34.256841 34.273584 34.289799 34.305469 34.320574 34.335096 34.349018
34.362322 34.374991 34.387009 34.398361 34.409031 34.419005 34.428269 34.436812
34.444621 34.451685 34.457996 34.463543 34.468319 34.472317 34.475533 34.477960
34.479596 34.480439 34.480487 34.479741 34.478202 34.475871 34.472754 34.468853
34.464176 34.458729 34.452520 34.445558 34.437853 34.429416 34.420258 34.410393
34.399834 34.388596 34.376693 34.364141 34.350957 34.337158 34.322761 34.307785
34.292247 34.276166 34.259562 34.242453 34.224859 34.206800 34.188294 34.169363
34.150024 34.130299 34.110205 34.089763 34.068991 34.047907 34.026531 34.004881
33.982973 33.960826 33.938456 33.915880 33.893113 33.870171 33.847070 33.823822
33.800443 33.776946 33.753343 33.729646 33.705868 33.682019 33.658109 33.634149
33.610148 33.586114 33.562056 33.537981 33.513896 33.489808 33.465722 33.441645
33.417580 33.393533 33.369507 33.345505 33.321531 33.297587 33.273675 33.249797
33.225954 33.202147 33.178376 33.154642 33.130944 33.107281 33.083654 33.060061
33.036500 33.012971 32.989470 32.965997 32.942549 32.919123 32.895718 32.872330
32.848957 32.825596 32.802244 32.778898 32.755556
33.133333 33.169106 33.204883 33.240667 33.276464 33.312277 33.348109 33.383965
33.419848 33.455760 33.491706 33.527687 33.563707 33.599767 33.635870 33.672016
33.708207 33.744443 33.780725 33.817052 33.853424 33.889838 33.926294 33.962788
33.999317 34.035878 34.072467 34.109078 34.145704 34.182341 34.218980 34.255614
34.292233 34.328828 34.365388 34.401903 34.438359 34.474745 34.511046 34.547247
34.583334 34.619288 34.655094 34.690733 34.726186 34.761434 34.796454 34.831227
34.865729 34.899938 34.933830 34.967380 35.000563 35.033354 35.065725 35.097651
35.129103 35.160053 35.190474 35.220337 35.249612 35.278271 35.306284 35.333623
35.360257 35.386158 35.411297 35.435646 35.459174 35.481856 35.503663 35.524568
35.544546 35.563571 35.581619 35.598665 35.614689 35.629667 35.643580 35.656409
35.668137 35.678746 35.688223 35.696554 35.703727 35.709732 35.714561 35.718206
35.720664 35.721929 35.722002 35.720881 35.718569 35.715069 35.710386 35.704529
35.697504 35.689324 35.679999 35.669543 35.657971 35.645300 35.631547 35.616732
35.600875 35.583998 35.566123 35.547274 35.527476 35.506755 35.485136 35.462648
35.439316 35.415170 35.390239 35.364550 35.338133 35.311018 35.283235 35.254811
35.225777 35.196163 35.165997 35.135308 35.104124 35.072474 35.040386 35.007885
34.975000 34.941756 34.908178 34.874291 34.840119 34.805684 34.771011 34.736120
34.701032 34.665766 34.630343 34.594781 34.559096 34.523305 34.487425 34.451469
34.415453 34.379387 34.343287 34.307161 34.271022 34.234877 34.198738 34.162611
34.126504 34.090424 34.054375 34.018364 33.982395 33.946472 33.910597 33.874773
33.839002 33.803285 33.767623 33.732016 33.696464 33.660966 33.625521 33.590127
33.554782 33.519484 33.484231 33.449018 33.413843 33.378702 33.343591 33.308507
33.273445 33.238401 33.203371 33.168350 33.133333
33.511111 33.558813 33.606520 33.654237 33.701971 33.749727 33.797509 33.845322
33.893171 33.941061 33.988995 34.036977 34.085011 34.133098 34.181243 34.229447
34.277711 34.326036 34.374422 34.422870 34.471377 34.519942 34.568563 34.617236
34.665957 34.714722 34.763523 34.812355 34.861210 34.910079 34.958952 35.007819
35.056667 35.105485 35.154257 35.202970 35.251606 35.300149 35.348580 35.396880
35.445027 35.493000 35.540776 35.588331 35.635638 35.682672 35.729406 35.775809
35.821853 35.867507 35.912739 35.957517 36.001806 36.045572 36.088780 36.131394
36.173378 36.214693 36.255302 36.295167 36.334249 36.372509 36.409909 36.446409
36.481969 36.516552 36.550118 36.582628 36.614046 36.644332 36.673452 36.701368
36.728047 36.753453 36.777555 36.800320 36.821719 36.841723 36.860304 36.877438
36.893101 36.907271 36.919928 36.931055 36.940635 36.948655 36.955105 36.959974
36.963256 36.964946 36.965042 36.963545 36.960457 36.955782 36.949528 36.941704
36.932322 36.921395 36.908940 36.894975 36.879520 36.862596 36.844228 36.824442
36.803265 36.780725 36.756854 36.731683 36.705245 36.677574 36.648705 36.618675
36.587521 36.555280 36.521991 36.487691 36.452421 36.416220 36.379126 36.341179
36.302419 36.262885 36.222615 36.181649 36.140023 36.097777 36.054945 36.011566
35.967674 35.923305 35.878491 35.833266 35.787662 35.741710 35.695439 35.648880
35.602059 35.555003 35.507737 35.460287 35.412675 35.364923 35.317052 35.269083
35.221033 35.172920 35.124760 35.076569 35.028359 34.980145 34.931938 34.883749
34.835588 34.787463 34.739381 34.691351 34.643377 34.595465 34.547618 34.499840
34.452134 34.404500 34.356940 34.309455 34.262043 34.214704 34.167436 34.120236
34.073103 34.026033 33.979021 33.932065 33.885159 33.838300 33.791481 33.744697
33.697944 33.651214 33.604503 33.557804 33.511111
33.888889 33.948523 34.008165 34.067820 34.127495 34.187198 34.246933 34.306709
34.366530 34.426401 34.486329 34.546318 34.606371 34.666494 34.726688 34.786956
34.847301 34.907723 34.968223 35.028800 35.089454 35.150181 35.210978 35.271843
35.332768 35.393750 35.454779 35.515848 35.576946 35.638065 35.699189 35.760308
35.821406 35.882467 35.943473 36.004406 36.065246 36.125971 36.186558 36.246982
36.307218 36.367238 36.427014 36.486514 36.545708 36.604561 36.663041 36.721110
36.778731 36.835866 36.892475 36.948518 37.003951 37.058732 37.112816 37.166159
37.218714 37.270435 37.321274 37.371183 37.420114 37.468018 37.514845 37.560548
37.605076 37.648381 37.690414 37.731127 37.770472 37.808402 37.844872 37.879836
37.913250 37.945072 37.975260 38.003776 38.030580 38.055637 38.078913 38.100377
38.119998 38.137748 38.153604 38.167543 38.179545 38.189593 38.197672 38.203772
38.207883 38.210000 38.210121 38.208245 38.204375 38.198518 38.190682 38.180880
38.169126 38.155437 38.139834 38.122339 38.102978 38.081777 38.058768 38.033983
38.007455 37.979222 37.949322 37.917793 37.884679 37.850022 37.813866 37.776257
37.737241 37.696864 37.655177 37.612226 37.568061 37.522731 37.476285 37.428774
37.380246 37.330750 37.280335 37.229050 37.176942 37.124058 37.070445 37.016148
36.961211 36.905678 36.849592 36.792993 36.735922 36.678417 36.620516 36.562255
36.503670 36.444792 36.385655 36.326288 36.266721 36.206981 36.147095 36.087087
36.026980 35.966796 35.906556 35.846277 35.785979 35.725676 35.665384 35.605116
35.544884 35.484698 35.424570 35.364506 35.304514 35.244601 35.184771 35.125029
35.065377 35.005817 34.946351 34.886978 34.827699 34.768511 34.709413 34.650402
34.591474 34.532626 34.473852 34.415147 34.356507 34.297924 34.239392 34.180905
34.122456 34.064038 34.005642 33.947262 33.888889
34.266667 34.338239 34.409820 34.481417 34.553039 34.624694 34.696389 34.768133
34.839931 34.911791 34.983720 35.055722 35.127803 35.199968 35.272220 35.344563
35.416998 35.489528 35.562153 35.634871 35.707683 35.780585 35.853574 35.926645
35.999792 36.073007 36.146282 36.219606 36.292969 36.366358 36.439757 36.513151
36.586523 36.659852 36.733120 36.806302 36.879375 36.952312 37.025087 37.097669
37.170029 37.242131 37.313943 37.385428 37.456547 37.527261 37.597529 37.667306
37.736549 37.805210 37.873243 37.940597 38.007223 38.073067 38.138078 38.202200
38.265378 38.327556 38.388676 38.448681 38.507513 38.565112 38.621420 38.676378
38.729925 38.782004 38.832555 38.881520 38.928843 38.974465 39.018332 39.060389
39.100584 39.138864 39.175180 39.209485 39.241732 39.271878 39.299882 39.325706
39.349313 39.370670 39.389748 39.406520 39.420961 39.433050 39.442772 39.450111
39.455058 39.457605 39.457750 39.455492 39.450835 39.443787 39.434358 39.422562
39.408418 39.391947 39.373172 39.352121 39.328825 39.303317 39.275634 39.245814
39.213898 39.179932 39.143961 39.106033 39.066198 39.024509 38.981018 38.935781
38.888853 38.840292 38.790155 38.738501 38.685389 38.630879 38.575029 38.517901
38.459552 38.400042 38.339431 38.277776 38.215134 38.151563 38.087118 38.021854
37.955824 37.889081 37.821675 37.753657 37.685074 37.615974 37.546400 37.476398
37.406008 37.335271 37.264224 37.192905 37.121349 37.049588 36.977654 36.905576
36.833383 36.761100 36.688752 36.616361 36.543949 36.471534 36.399134 36.326765
36.254442 36.182178 36.109984 36.037870 35.965844 35.893915 35.822088 35.750368
35.678757 35.607260 35.535876 35.464606 35.393450 35.322405 35.251468 35.180638
35.109908 35.039274 34.968731 34.898273 34.827891 34.757580 34.687331 34.617136
34.546987 34.476874 34.406789 34.336723 34.266667
34.644444 34.727961 34.811486 34.895032 34.978607 35.062220 35.145882 35.229600
35.313383 35.397240 35.481176 35.565201 35.649319 35.733536 35.817856 35.902284
35.986822 36.071472 36.156234 36.241109 36.326094 36.411188 36.496385 36.581681
36.667067 36.752537 36.838079 36.923682 37.009333 37.095018 37.180718 37.266416
37.352090 37.437720 37.523280 37.608745 37.694086 37.779274 37.864274 37.949055
38.033579 38.117808 38.201700 38.285216 38.368308 38.450931 38.533037 38.614574
38.695491 38.775734 38.855245 38.933969 39.011844 39.088811 39.164807 39.239769
39.313631 39.386328 39.457792 39.527957 39.596752 39.664110 39.729961 39.794237
39.856866 39.917780 39.976911 40.034189 40.089548 40.142920 40.194241 40.243447
40.290476 40.335266 40.377760 40.417902 40.455637 40.490914 40.523686 40.553907
40.581535 40.606530 40.628858 40.648487 40.665389 40.679538 40.690916 40.699506
40.705295 40.708276 40.708445 40.705801 40.700350 40.692099 40.681062 40.667256
40.650701 40.631422 40.609447 40.584809 40.557544 40.527691 40.495293 40.460396
40.423048 40.383301 40.341210 40.296830 40.250221 40.201444 40.150562 40.097638
40.042740 39.985933 39.927285 39.866866 39.804745 39.740991 39.675674 39.608865
39.540633 39.471046 39.400176 39.328088 39.254852 39.180533 39.105196 39.028906
38.951725 38.873714 38.794934 38.715442 38.635295 38.554547 38.473251 38.391458
38.309216 38.226573 38.143573 38.060259 37.976671 37.892849 37.808829 37.724645
37.640330 37.555914 37.471426 37.386892 37.302336 37.217780 37.133246 37.048752
36.964314 36.879948 36.795667 36.711482 36.627404 36.543440 36.459599 36.375884
36.292301 36.208852 36.125537 36.042358 35.959313 35.876400 35.793615 35.710956
35.628415 35.545989 35.463669 35.381449 35.299320 35.217274 35.135301 35.053392
34.971537 34.889726 34.807947 34.726190 34.644444
35.022222 35.117689 35.213166 35.308667 35.404202 35.499781 35.595416 35.691117
35.786893 35.882754 35.978709 36.074766 36.170931 36.267211 36.363611 36.460137
36.556791 36.653575 36.750491 36.847538 36.944715 37.042018 37.139443 37.236984
37.334633 37.432381 37.530215 37.628124 37.726091 37.824101 37.922133 38.020167
38.118180 38.216145 38.314037 38.411824 38.509475 38.606954 38.704226 38.801251
38.897988 38.994392 39.090419 39.186017 39.281139 39.375728 39.469731 39.563089
39.655742 39.747629 39.838685 39.928843 40.018037 40.106195 40.193247 40.279119
40.363737 40.447025 40.528906 40.609303 40.688136 40.765327 40.840796 40.914462
40.986246 41.056069 41.123851 41.189513 41.252978 41.314169 41.373011 41.429431
41.483356 41.534717 41.583448 41.629482 41.672758 41.713217 41.750804 41.785466
41.817154 41.845824 41.871436 41.893951 41.913338 41.929569 41.942620 41.952473
41.959113 41.962532 41.962724 41.959691 41.953436 41.943971 41.931309 41.915471
41.896479 41.874363 41.849156 41.820894 41.789620 41.755378 41.718218 41.678194
41.635359 41.589776 41.541505 41.490613 41.437167 41.381238 41.322897 41.262219
41.199279 41.134155 41.066925 40.997669 40.926464 40.853393 40.778535 40.701972
40.623782 40.544046 40.462842 40.380250 40.296347 40.211209 40.124910 40.037525
39.949125 39.859781 39.769561 39.678532 39.586758 39.494303 39.401225 39.307584
39.213434 39.118832 39.023826 38.928466 38.832799 38.736870 38.640718 38.544385
38.447907 38.351319 38.254653 38.157939 38.061205 37.964477 37.867777 37.771128
37.674547 37.578053 37.481659 37.385381 37.289227 37.193209 37.097333 37.001607
36.906033 36.810615 36.715355 36.620252 36.525305 36.430511 36.335867 36.241368
36.147007 36.052778 35.958673 35.864683 35.770799 35.677011 35.583308 35.489678
35.396111 35.302595 35.209116 35.115663 35.022222
35.400000 35.507424 35.614861 35.722325 35.829827 35.937380 36.044997 36.152689
36.260468 36.368344 36.476327 36.584426 36.692650 36.801006 36.909500 37.018137
37.126922 37.235858 37.344944 37.454182 37.563570 37.673104 37.782780 37.892591
38.002527 38.112580 38.222735 38.332979 38.443295 38.553663 38.664063 38.774470
38.884860 38.995203 39.105468 39.215622 39.325629 39.435451 39.545044 39.654367
39.763372 39.872010 39.980228 40.087973 40.195185 40.301807 40.407774 40.513022
40.617483 40.721087 40.823760 40.925431 41.026019 41.125448 41.223635 41.320499
41.415956 41.509919 41.602301 41.693014 41.781970 41.869079 41.954249 42.037392
42.118415 42.197230 42.273746 42.347873 42.419525 42.488613 42.555053 42.618761
42.679656 42.737658 42.792692 42.844683 42.893561 42.939260 42.981716 43.020869
43.056665 43.089052 43.117984 43.143419 43.165320 43.183657 43.198401 43.209532
43.217033 43.220895 43.221111 43.217683 43.210615 43.199920 43.185613 43.167718
43.146261 43.121275 43.092796 43.060869 43.025539 42.986858 42.944882 42.899672
42.851290 42.799806 42.745289 42.687814 42.627458 42.564301 42.498425 42.429913
42.358853 42.285330 42.209435 42.131256 42.050885 41.968412 41.883928 41.797525
41.709293 41.619321 41.527702 41.434522 41.339870 41.243830 41.146490 41.047931
40.948235 40.847481 40.745747 40.643107 40.539636 40.435402 40.330476 40.224921
40.118801 40.012177 39.905107 39.797644 39.689843 39.581752 39.473418 39.364887
39.256199 39.147393 39.038506 38.929572 38.820621 38.711682 38.602782 38.493943
38.385188 38.276535 38.168002 38.059602 37.951348 37.843251 37.735320 37.627559
37.519976 37.412571 37.305348 37.198305 37.091442 36.984754 36.878237 36.771886
36.665693 36.559651 36.453751 36.347982 36.242334 36.136796 36.031354 35.925997
35.820712 35.715483 35.610298 35.505142 35.400000
35.777778 35.897168 36.016573 36.136007 36.255485 36.375021 36.494629 36.614323
36.734114 36.854015 36.974038 37.094192 37.214488 37.334933 37.455535 37.576301
37.697234 37.818338 37.939615 38.061064 38.182685 38.304474 38.426425 38.548532
38.670785 38.793172 38.915680 39.038293 39.160993 39.283757 39.406564 39.529387
39.652197 39.774963 39.897651 40.020223 40.142639 40.264857 40.386831 40.508511
40.629846 40.750781 40.871259 40.991218 41.110594 41.229320 41.347328 41.464544
41.580892 41.696295 41.810672 41.923938 42.036010 42.146798 42.256212 42.364160
42.470548 42.575279 42.678257 42.779383 42.878558 42.975680 43.070649 43.163363
43.253722 43.341623 43.426966 43.509651 43.589580 43.666655 43.740780 43.811861
43.879808 43.944531 44.005944 44.063965 44.118515 44.169519 44.216905 44.260607
44.300563 44.336715 44.369011 44.397404 44.421853 44.442322 44.458782 44.471207
44.479581 44.483891 44.484131 44.480302 44.472410 44.460468 44.444495 44.424515
44.400559 44.372664 44.340872 44.305230 44.265791 44.222614 44.175761 44.125299
44.071301 44.013842 43.953002 43.888865 43.821517 43.751048 43.677548 43.601114
43.521841 43.439828 43.355173 43.267979 43.178344 43.086374 42.992167 42.895828
42.797457 42.697156 42.595024 42.491163 42.385667 42.278636 42.170162 42.060340
41.949260 41.837011 41.723678 41.609346 41.494096 41.378008 41.261156 41.143614
41.025452 40.906738 40.787535 40.667906 40.547907 40.427595 40.307022 40.186237
40.065286 39.944213 39.823056 39.701856 39.580644 39.459453 39.338312 39.217247
39.096282 38.975437 38.854731 38.734181 38.613798 38.493596 38.373583 38.253767
38.134151 38.014740 37.895535 37.776535 37.657737 37.539140 37.420736 37.302520
37.184483 37.066616 36.948910 36.831352 36.713931 36.596633 36.479445 36.362353
36.245340 36.128392 36.011494 35.894627 35.777778
36.155556 36.286920 36.418301 36.549716 36.681179 36.812707 36.944317 37.076021
37.207836 37.339774 37.471849 37.604072 37.736453 37.869003 38.001730 38.134640
38.267740 38.401033 38.534521 38.668205 38.802083 38.936152 39.070406 39.204839
39.339439 39.474194 39.609090 39.744110 39.879232 40.014435 40.149693 40.284977
40.420256 40.555497 40.690659 40.825705 40.960589 41.095265 41.229682 41.363786
41.497521 41.630825 41.763636 41.895886 42.027505 42.158419 42.288551 42.417822
42.546146 42.673440 42.799613 42.924573 43.048224 43.170472 43.291213 43.410348
43.527771 43.643376 43.757056 43.868701 43.978201 44.085445 44.190319 44.292713
44.392513 44.489607 44.583883 44.675230 44.763538 44.848699 44.930607 45.009157
45.084247 45.155780 45.223659 45.287792 45.348092 45.404474 45.456860 45.505175
45.549349 45.589320 45.625028 45.656423 45.683456 45.706090 45.724289 45.738028
45.747287 45.752051 45.752315 45.748079 45.739350 45.726142 45.708477 45.686381
45.659890 45.629043 45.593888 45.554478 45.510872 45.463133 45.411333 45.355547
45.295854 45.232339 45.165090 45.094202 45.019769 44.941891 44.860671 44.776214
44.688627 44.598019 44.504500 44.408183 44.309179 44.207602 44.103566 43.997183
43.888566 43.777828 43.665079 43.550429 43.433988 43.315861 43.196154 43.074968
42.952406 42.828565 42.703540 42.577424 42.450308 42.322276 42.193415 42.063804
41.933520 41.802638 41.671230 41.539361 41.407097 41.274498 41.141621 41.008521
40.875249 40.741851 40.608373 40.474854 40.341333 40.207844 40.074419 39.941086
39.807871 39.674797 39.541884 39.409149 39.276608 39.144271 39.012150 38.880250
38.748579 38.617139 38.485931 38.354954 38.224205 38.093680 37.963374 37.833278
37.703383 37.573680 37.444155 37.314798 37.185593 37.056527 36.927583 36.798746
36.669999 36.541324 36.412704 36.284121 36.155556
36.533333 36.676682 36.820049 36.963452 37.106911 37.250442 37.394063 37.537790
37.681640 37.825628 37.969767 38.114072 38.258555 38.403226 38.548094 38.693168
38.838455 38.983958 39.129680 39.275623 39.421785 39.568162 39.714750 39.861539
40.008521 40.155680 40.303003 40.450469 40.598058 40.745744 40.893501 41.041297
41.189099 41.336868 41.484566 41.632147 41.779563 41.926763 42.073694 42.220294
42.366504 42.512257 42.657483 42.802108 42.946058 43.089249 43.231599 43.373019
43.513420 43.652705 43.790777 43.927535 44.062876 44.196692 44.328873 44.459307
44.587881 44.714476 44.838976 44.961258 45.081203 45.198687 45.313587 45.425779
45.535139 45.641543 45.744868 45.844991 45.941792 46.035151 46.124950 46.211074
46.293412 46.371853 46.446293 46.516629 46.582765 46.644608 46.702070 46.755069
46.803529 46.847378 46.886553 46.920996 46.950656 46.975488 46.995455 47.010529
47.020686 47.025912 47.026199 47.021549 47.011969 46.997475 46.978089 46.953843
46.924775 46.890929 46.852357 46.809118 46.761277 46.708907 46.652083 46.590889
46.525414 46.455752 46.381999 46.304260 46.222639 46.137248 46.048199 45.955608
45.859592 45.760274 45.657775 45.552217 45.443725 45.332424 45.218438 45.101892
44.982910 44.861616 44.738132 44.612579 44.485075 44.355739 44.224685 44.092028
43.957875 43.822337 43.685516 43.547515 43.408432 43.268363 43.127399 42.985628
42.843135 42.700002 42.556305 42.412118 42.267512 42.122553 41.977303 41.831821
41.686163 41.540380 41.394520 41.248628 41.102744 40.956906 40.811149 40.665503
40.519996 40.374652 40.229494 40.084539 39.939803 39.795301 39.651041 39.507032
39.363279 39.219785 39.076551 38.933576 38.790856 38.648387 38.506161 38.364169
38.222402 38.080848 37.939493 37.798324 37.657325 37.516480 37.375771 37.235181
37.094690 36.954280 36.813931 36.673622 36.533333
36.911111 37.066453 37.221815 37.377218 37.532682 37.688226 37.843869 37.999631
38.155529 38.311579 38.467798 38.624201 38.780800 38.937609 39.094638 39.251896
39.409390 39.567126 39.725107 39.883336 40.041809 40.200525 40.359478 40.518660
40.678059 40.837662 40.997452 41.157409 41.317510 41.477730 41.638037 41.798400
41.958782 42.119143 42.279438 42.439621 42.599639 42.759437 42.918957 43.078134
43.236901 43.395188 43.552918 43.710012 43.866386 44.021955 44.176624 44.330300
44.482882 44.634270 44.784354 44.933028 45.080174 45.225680 45.369423 45.511282
45.651132 45.788846 45.924293 46.057343 46.187863 46.315719 46.440775 46.562896
46.681947 46.797791 46.910293 47.019320 47.124738 47.226417 47.324227 47.418043
47.507740 47.593199 47.674305 47.750945 47.823013 47.890407 47.953031 48.010793
48.063611 48.111406 48.154107 48.191651 48.223982 48.251051 48.272817 48.289248
48.300320 48.306015 48.306326 48.301254 48.290807 48.275002 48.253866 48.227431
48.195740 48.158842 48.116793 48.069659 48.017512 47.960429 47.898496 47.831805
47.760453 47.684541 47.604180 47.519479 47.430558 47.337536 47.240537 47.139689
47.035122 46.926966 46.815357 46.700429 46.582319 46.461161 46.337095 46.210254
46.080777 45.948797 45.814448 45.677863 45.539171 45.398501 45.255979 45.111727
44.965867 44.818515 44.669785 44.519788 44.368632 44.216419 44.063251 43.909221
43.754424 43.598946 43.442872 43.286281 43.129251 42.971851 42.814151 42.656214
42.498101 42.339865 42.181560 42.023233 41.864930 41.706688 41.548547 41.390538
41.232693 41.075035 40.917590 40.760376 40.603411 40.446708 40.290278 40.134128
39.978266 39.822692 39.667408 39.512413 39.357701 39.203267 39.049104 38.895200
38.741545 38.588126 38.434928 38.281935 38.129130 37.976495 37.824011 37.671658
37.519415 37.367260 37.215173 37.063131 36.911111
37.288889 37.456234 37.623602 37.791014 37.958494 38.126062 38.293740 38.461548
38.629506 38.797633 38.965946 39.134461 39.303195 39.472160 39.641369 39.810832
39.980557 40.150550 40.320816 40.491358 40.662174 40.833261 41.004614 41.176224
41.348081 41.520168 41.692470 41.864965 42.037629 42.210434 42.383349 42.556337
42.729362 42.902378 43.075340 43.248196 43.420892 43.593368 43.765559 43.937398
44.108813 44.279727 44.450058 44.619720 44.788624 44.956674 45.123774 45.289818
45.454701 45.618310 45.780532 45.941245 46.100327 46.257653 46.413092 46.566511
46.717776 46.866747 47.013284 47.157243 47.298481 47.436852 47.572208 47.704402
47.833286 47.958711 48.080532 48.198601 48.312773 48.422906 48.528859 48.630493
48.727675 48.820272 48.908160 48.991214 49.069320 49.142364 49.210242 49.272855
49.330111 49.381924 49.428217 49.468921 49.503973 49.533321 49.556920 49.574734
49.586736 49.592909 49.593244 49.587741 49.576410 49.559270 49.536348 49.507683
49.473318 49.433309 49.387718 49.336616 49.280081 49.218200 49.151065 49.078776
49.001440 48.919170 48.832083 48.740302 48.643955 48.543175 48.438095 48.328856
48.215598 48.098467 47.977608 47.853168 47.725295 47.594139 47.459847 47.322569
47.182453 47.039645 46.894291 46.746534 46.596516 46.444377 46.290251 46.134275
45.976577 45.817285 45.656523 45.494411 45.331063 45.166594 45.001109 44.834715
44.667508 44.499586 44.331037 44.161950 43.992405 43.822480 43.652247 43.481777
43.311131 43.140372 42.969553 42.798727 42.627940 42.457236 42.286655 42.116231
41.945996 41.775978 41.606202 41.436688 41.267453 41.098513 40.929878 40.761557
40.593554 40.425873 40.258514 40.091474 39.924748 39.758329 39.592209 39.426376
39.260817 39.095517 38.930462 38.765632 38.601009 38.436574 38.272304 38.108178
37.944173 37.780266 37.616432 37.452648 37.288889
37.666667 37.846025 38.025409 38.204841 38.384347 38.563951 38.743675 38.923542
39.103574 39.283791 39.464213 39.644858 39.825744 40.006884 40.188293 40.369983
40.551962 40.734239 40.916818 41.099702 41.282892 41.466384 41.650173 41.834252
42.018607 42.203225 42.388086 42.573170 42.758449 42.943897 43.129477 43.315155
43.500888 43.686631 43.872333 44.057941 44.243395 44.428632 44.613584 44.798178
44.982336 45.165977 45.349012 45.531351 45.712895 45.893545 46.073194 46.251730
46.429039 46.605001 46.779490 46.952381 47.123538 47.292827 47.460106 47.625234
47.788062 47.948442 48.106220 48.261243 48.413354 48.562396 48.708208 48.850630
48.989503 49.124665 49.255956 49.383219 49.506295 49.625029 49.739267 49.848860
49.953661 50.053529 50.148323 50.237914 50.322171 50.400975 50.474209 50.541768
50.603549 50.659460 50.709417 50.753343 50.791172 50.822845 50.848313 50.867538
50.880490 50.887150 50.887508 50.881565 50.869332 50.850828 50.826084 50.795141
50.758049 50.714865 50.665660 50.610509 50.549500 50.482724 50.410284 50.332289
50.248856 50.160105 50.066167 49.967174 49.863266 49.754585 49.641282 49.523504
49.401408 49.275149 49.144887 49.010780 48.872990 48.731677 48.587006 48.439134
48.288224 48.134433 47.977921 47.818841 47.657347 47.493590 47.327718 47.159873
46.990198 46.818830 46.645902 46.471543 46.295879 46.119028 45.941110 45.762233
45.582507 45.402031 45.220905 45.039220 44.857065 44.674521 44.491668 44.308578
44.125320 43.941958 43.758552 43.575156 43.391821 43.208591 43.025510 42.842614
42.659937 42.477508 42.295354 42.113494 41.931949 41.750733 41.569857 41.389329
41.209156 41.029338 40.849876 40.670766 40.492003 40.313577 40.135481 39.957699
39.780220 39.603025 39.426097 39.249417 39.072965 38.896717 38.720651 38.544742
38.368966 38.193297 38.017708 37.842174 37.666667
38.044444 38.235827 38.427236 38.618699 38.810243 39.001893 39.193675 39.385613
39.577733 39.770055 39.962602 40.155394 40.348449 40.541784 40.735415 40.929354
41.123613 41.318200 41.513121 41.708379 41.903976 42.099909 42.296174 42.492761
42.689660 42.886854 43.084325 43.282050 43.480002 43.678151 43.876463 44.074896
44.273409 44.471952 44.670474 44.868915 45.067214 45.265303 45.463111 45.660558
45.857563 46.054037 46.249889 46.445019 46.639325 46.832697 47.025023 47.216183
47.406055 47.594508 47.781411 47.966624 48.150007 48.331412 48.510689 48.687682
48.862236 49.034187 49.203374 49.369627 49.532780 49.692660 49.849097 50.001916
50.150946 50.296012 50.436941 50.573561 50.705703 50.833196 50.955876 51.073579
51.186148 51.293427 51.395268 51.491524 51.582059 51.666740 51.745443 51.818050