# vtk DataFile Version 3.0
Steady-state temperature (Jacobi)
ASCII
DATASET STRUCTURED_POINTS
DIMENSIONS 181 181 1
ORIGIN 0.0 0.0 0.0
SPACING 0.05 0.05 1.0
POINT_DATA 32761
SCALARS Temperature float 1
LOOKUP_TABLE default
32.000000 32.000000 32.000000 32.000000 32.000000 32.000000 32.000000 32.000000
32.000000 32.000000 32.000000 32.000000 32.000000 32.000000 32.000000 32.000000
32.000000 32.000000 32.000000 32.000000 32.000000 32.000000 32.000000 32.000000
32.000000 32.000000 32.000000 32.000000 32.000000 32.000000 32.000000 32.000000
32.000000 32.000000 32.000000 32.000000 32.000000 32.000000 32.000000 32.000000
32.000000 32.000000 32.000000 32.000000 32.000000 32.000000 32.000000 32.000000
32.000000 32.000000 32.000000 32.000000 32.000000 32.000000 32.000000 32.000000
32.000000 32.000000 32.000000 32.000000 32.000000 32.000000 32.000000 32.000000
32.000000 32.000000 32.000000 32.000000 32.000000 32.000000 32.000000 32.000000
32.000000 32.000000 32.000000 32.000000 32.000000 32.000000 32.000000 32.000000
32.000000 32.000000 32.000000 32.000000 32.000000 32.000000 32.000000 32.000000
32.000000 32.000000 32.000000 32.000000 32.000000 32.000000 32.000000 32.000000
32.000000 32.000000 32.000000 32.000000 32.000000 32.000000 32.000000 32.000000
32.000000 32.000000 32.000000 32.000000 32.000000 32.000000 32.000000 32.000000
32.000000 32.000000 32.000000 32.000000 32.000000 32.000000 32.000000 32.000000
32.000000 32.000000 32.000000 32.000000 32.000000 32.000000 32.000000 32.000000
32.000000 32.000000 32.000000 32.000000 32.000000 32.000000 32.000000 32.000000
32.000000 32.000000 32.000000 32.000000 32.000000 32.000000 32.000000 32.000000
32.000000 32.000000 32.000000 32.000000 32.000000 32.000000 32.000000 32.000000
32.000000 32.000000 32.000000 32.000000 32.000000 32.000000 32.000000 32.000000
32.000000 32.000000 32.000000 32.000000 32.000000 32.000000 32.000000 32.000000
32.000000 32.000000 32.000000 32.000000 32.000000 32.000000 32.000000 32.000000
32.000000 32.000000 32.000000 32.000000 32.000000
32.377778 32.378331 32.378891 32.379468 32.380069 32.380703 32.381375 32.382096
32.382872 32.383712 32.384621 32.385608 32.386679 32.387843 32.389104 32.390470
32.391946 32.393540 32.395254 32.397097 32.399071 32.401184 32.403436 32.405836
32.408382 32.411083 32.413935 32.416947 32.420115 32.423446 32.426935 32.430589
32.434401 32.438378 32.442511 32.446807 32.451255 32.455861 32.460615 32.465520
32.470564 32.475751 32.481067 32.486515 32.492082 32.497766 32.503555 32.509447
32.515428 32.521495 32.527633 32.533839 32.540096 32.546400 32.552735 32.559095
32.565462 32.571832 32.578186 32.584517 32.590808 32.597052 32.603229 32.609333
32.615346 32.621260 32.627056 32.632728 32.638256 32.643634 32.648845 32.653880
32.658724 32.663369 32.667800 32.672010 32.675985 32.679719 32.683198 32.686419
32.689368 32.692042 32.694432 32.696532 32.698337 32.699842 32.701043 32.701937
32.702521 32.702794 32.702756 32.702405 32.701744 32.700772 32.699494 32.697912
32.696030 32.693853 32.691386 32.688635 32.685609 32.682312 32.678755 32.674945
32.670894 32.666608 32.662101 32.657380 32.652461 32.647351 32.642065 32.636613
32.631011 32.625266 32.619397 32.613412 32.607327 32.601153 32.594905 32.588593
32.582235 32.575837 32.569417 32.562983 32.556553 32.550132 32.543738 32.537375
32.531062 32.524802 32.518612 32.512495 32.506466 32.500529 32.494697 32.488973
32.483370 32.477888 32.472540 32.467327 32.462258 32.457334 32.452564 32.447946
32.443489 32.439190 32.435057 32.431087 32.427285 32.423647 32.420179 32.416874
32.413738 32.410764 32.407955 32.405305 32.402815 32.400478 32.398295 32.396257
32.394366 32.392613 32.390996 32.389507 32.388143 32.386896 32.385763 32.384734
32.383806 32.382970 32.382220 32.381548 32.380947 32.380410 32.379929 32.379496
32.379104 32.378744 32.378408 32.378089 32.377778
32.755556 32.756667 32.757794 32.758953 32.760161 32.761432 32.762784 32.764231
32.765790 32.767473 32.769299 32.771278 32.773429 32.775760 32.778290 32.781027
32.783988 32.787180 32.790619 32.794310 32.798269 32.802499 32.807016 32.811819
32.816924 32.822329 32.828048 32.834076 32.840427 32.847093 32.854088 32.861400
32.869042 32.877000 32.885285 32.893881 32.902797 32.912015 32.921542 32.931357
32.941466 32.951847 32.962501 32.973405 32.984558 32.995936 33.007536 33.019329
33.031313 33.043457 33.055756 33.068178 33.080715 33.093334 33.106026 33.118757
33.131515 33.144266 33.156997 33.169671 33.182276 33.194774 33.207152 33.219372
33.231420 33.243259 33.254873 33.266227 33.277305 33.288072 33.298512 33.308593
33.318299 33.327599 33.336477 33.344906 33.352872 33.360347 33.367320 33.373767
33.379678 33.385032 33.389820 33.394026 33.397642 33.400655 33.403062 33.404852
33.406023 33.406570 33.406493 33.405791 33.404466 33.402521 33.399960 33.396792
33.393022 33.388662 33.383720 33.378212 33.372147 33.365546 33.358420 33.350792
33.342674 33.334093 33.325063 33.315612 33.305755 33.295524 33.284935 33.274019
33.262794 33.251294 33.239534 33.227551 33.215361 33.203000 33.190482 33.177846
33.165106 33.152299 33.139437 33.126558 33.113674 33.100820 33.088009 33.075273
33.062624 33.050094 33.037690 33.025446 33.013367 33.001483 32.989798 32.978341
32.967113 32.956142 32.945427 32.934992 32.924835 32.914980 32.905420 32.896178
32.887246 32.878643 32.870360 32.862413 32.854793 32.847512 32.840560 32.833946
32.827659 32.821707 32.816075 32.810770 32.805777 32.801099 32.796721 32.792643
32.788850 32.785339 32.782094 32.779112 32.776375 32.773878 32.771602 32.769541
32.767677 32.766000 32.764493 32.763144 32.761937 32.760858 32.759890 32.759020
32.758229 32.757504 32.756827 32.756183 32.755556
33.133333 33.135014 33.136718 33.138471 33.140296 33.142218 33.144259 33.146445
33.148795 33.151337 33.154088 33.157075 33.160313 33.163830 33.167637 33.171764
33.176218 33.181028 33.186199 33.191759 33.197712 33.204082 33.210871 33.218103
33.225776 33.233912 33.242506 33.251579 33.261122 33.271155 33.281663 33.292667
33.304148 33.316122 33.328569 33.341502 33.354897 33.368765 33.383078 33.397844
33.413031 33.428646 33.444653 33.461054 33.477812 33.494925 33.512353 33.530092
33.548098 33.566364 33.584844 33.603527 33.622365 33.641345 33.660417 33.679565
33.698737 33.717915 33.737046 33.756110 33.775051 33.793851 33.812452 33.830833
33.848939 33.866747 33.884202 33.901280 33.917930 33.934126 33.949817 33.964982
33.979570 33.993559 34.006904 34.019583 34.031556 34.042801 34.053282 34.062981
34.071866 34.079920 34.087117 34.093445 34.098880 34.103415 34.107032 34.109725
34.111486 34.112309 34.112193 34.111138 34.109146 34.106221 34.102372 34.097606
34.091939 34.085380 34.077952 34.069667 34.060552 34.050623 34.039912 34.028437
34.016235 34.003328 33.989755 33.975539 33.960725 33.945336 33.929420 33.913001
33.896131 33.878833 33.861160 33.843136 33.824817 33.806224 33.787414 33.768408
33.749263 33.729999 33.710672 33.691301 33.671941 33.652609 33.633358 33.614204
33.595197 33.576351 33.557715 33.539299 33.521151 33.503276 33.485720 33.468487
33.451619 33.435116 33.419017 33.403321 33.388062 33.373236 33.358875 33.344971
33.331552 33.318609 33.306165 33.294208 33.282759 33.271803 33.261357 33.251404
33.241957 33.232997 33.224535 33.216549 33.209045 33.202001 33.195420 33.189278
33.183574 33.178284 33.173405 33.168909 33.164792 33.161025 33.157600 33.154489
33.151681 33.149147 33.146875 33.144835 33.143012 33.141378 33.139915 33.138594
33.137396 33.136295 33.135267 33.134288 33.133333
33.511111 33.513377 33.515675 33.518037 33.520497 33.523084 33.525834 33.528772
33.531936 33.535350 33.539049 33.543056 33.547407 33.552120 33.557233 33.562760
33.568737 33.575176 33.582112 33.589553 33.597533 33.606055 33.615153 33.624826
33.635105 33.645985 33.657496 33.669627 33.682407 33.695819 33.709890 33.724599
33.739969 33.755975 33.772637 33.789924 33.807853 33.826390 33.845546 33.865282
33.885608 33.906479 33.927900 33.949823 33.972248 33.995123 34.018445 34.042157
34.066252 34.090669 34.115397 34.140372 34.165580 34.190954 34.216475 34.242073
34.267729 34.293368 34.318969 34.344456 34.369805 34.394940 34.419833 34.444411
34.468641 34.492452 34.515813 34.538650 34.560932 34.582590 34.603591 34.623870
34.643395 34.662103 34.679964 34.696922 34.712946 34.727986 34.742015 34.754987
34.766879 34.777652 34.787286 34.795749 34.803025 34.809090 34.813932 34.817535
34.819892 34.820994 34.820840 34.819428 34.816763 34.812851 34.807700 34.801326
34.793741 34.784970 34.775028 34.763948 34.751748 34.738469 34.724134 34.708788
34.692458 34.675197 34.657032 34.638021 34.618195 34.597616 34.576316 34.554362
34.531785 34.508655 34.485004 34.460905 34.436389 34.411530 34.386358 34.360948
34.335329 34.309575 34.283712 34.257816 34.231910 34.206066 34.180306 34.154701
34.129268 34.104076 34.079139 34.054522 34.030237 34.006345 33.982852 33.959818
33.937245 33.915187 33.893644 33.872664 33.852244 33.832427 33.813207 33.794622
33.776662 33.759361 33.742703 33.726721 33.711393 33.696748 33.682761 33.669455
33.656804 33.644824 33.633489 33.622809 33.612755 33.603334 33.594513 33.586296
33.578648 33.571569 33.565022 33.559003 33.553475 33.548428 33.543826 33.539655
33.535877 33.532476 33.529415 33.526673 33.524213 33.522011 33.520032 33.518248
33.516625 33.515133 33.513737 33.512408 33.511111
33.888889 33.891762 33.894675 33.897670 33.900784 33.904062 33.907538 33.911258
33.915252 33.919567 33.924231 33.929290 33.934770 33.940715 33.947148 33.954114
33.961628 33.969738 33.978453 33.987818 33.997840 34.008562 34.019985 34.032149
34.045051 34.058729 34.073173 34.088420 34.104454 34.121308 34.138959 34.157439
34.176719 34.196825 34.217723 34.239436 34.261924 34.285203 34.309229 34.334014
34.359506 34.385714 34.412580 34.440108 34.468234 34.496957 34.526208 34.555981
34.586202 34.616860 34.647876 34.679236 34.710855 34.742715 34.774728 34.806871
34.839054 34.871249 34.903365 34.935370 34.967172 34.998735 35.029966 35.060830
35.091232 35.121134 35.150445 35.179126 35.207086 35.234286 35.260640 35.286108
35.310611 35.334108 35.356524 35.377822 35.397934 35.416824 35.434432 35.450726
35.465652 35.479184 35.491276 35.501907 35.511040 35.518659 35.524738 35.529265
35.532224 35.533609 35.533416 35.531644 35.528299 35.523386 35.516922 35.508917
35.499398 35.488382 35.475905 35.461988 35.446678 35.430000 35.412010 35.392737
35.372244 35.350565 35.327770 35.303895 35.279016 35.253172 35.226445 35.198874
35.170546 35.141500 35.111826 35.081564 35.050805 35.019589 34.988009 34.956103
34.923963 34.891625 34.859182 34.826666 34.794169 34.761720 34.729408 34.697258
34.665358 34.633728 34.602451 34.571543 34.541084 34.511086 34.481622 34.452700
34.424391 34.396694 34.369675 34.343331 34.317721 34.292836 34.268730 34.245391
34.222865 34.201135 34.180242 34.160165 34.140940 34.122540 34.104994 34.088273
34.072401 34.057344 34.043120 34.029692 34.017073 34.005223 33.994148 33.983808
33.974203 33.965289 33.957062 33.949477 33.942526 33.936160 33.930367 33.925100
33.920339 33.916038 33.912173 33.908698 33.905586 33.902789 33.900277 33.898005
33.895938 33.894032 33.892250 33.890549 33.888889
34.266667 34.270173 34.273730 34.277382 34.281182 34.285174 34.289410 34.293931
34.298792 34.304029 34.309697 34.315829 34.322479 34.329676 34.337475 34.345897
34.354999 34.364797 34.375345 34.386653 34.398775 34.411715 34.425523 34.440198
34.455788 34.472284 34.489732 34.508116 34.527479 34.547796 34.569107 34.591382
34.614655 34.638887 34.664110 34.690277 34.717414 34.745468 34.774459 34.804326
34.835084 34.866666 34.899080 34.932253 34.966185 35.000798 35.036088 35.071967
35.108426 35.145373 35.182792 35.220586 35.258733 35.297132 35.335755 35.374496
35.413325 35.452132 35.490881 35.529460 35.567831 35.605881 35.643565 35.680773
35.717459 35.753510 35.788880 35.823460 35.857201 35.889999 35.921803 35.952515
35.982085 36.010421 36.037475 36.063160 36.087434 36.110217 36.131469 36.151121
36.169138 36.185459 36.200056 36.212879 36.223904 36.233095 36.240433 36.245894
36.249467 36.251139 36.250908 36.248772 36.244736 36.238812 36.231010 36.221357
36.209869 36.196584 36.181525 36.164743 36.146265 36.126153 36.104441 36.081199
36.056468 36.030326 36.002817 35.974028 35.944006 35.912844 35.880592 35.847350
35.813167 35.778148 35.742342 35.705859 35.668746 35.631116 35.593013 35.554552
35.515775 35.476796 35.437654 35.398463 35.359258 35.320148 35.281167 35.242421
35.203938 35.165819 35.128087 35.090841 35.054096 35.017946 34.982402 34.947551
34.913397 34.880023 34.847426 34.815681 34.784782 34.754795 34.725709 34.697583
34.670400 34.644213 34.618998 34.594801 34.571594 34.549416 34.528232 34.508075
34.488907 34.470752 34.453569 34.437374 34.422124 34.407827 34.394437 34.381957
34.370335 34.359571 34.349610 34.340443 34.332017 34.324317 34.317287 34.310906
34.305119 34.299900 34.295193 34.290966 34.287164 34.283753 34.280675 34.277894
34.275353 34.273010 34.270813 34.268716 34.266667
34.644444 34.648618 34.652848 34.657193 34.661707 34.666451 34.671474 34.676840
34.682592 34.688796 34.695492 34.702744 34.710588 34.719089 34.728275 34.738213
34.748923 34.760472 34.772873 34.786191 34.800435 34.815664 34.831880 34.849142
34.867443 34.886839 34.907315 34.928923 34.951640 34.975513 35.000512 35.026678
35.053974 35.082435 35.112015 35.142744 35.174566 35.207507 35.241501 35.276568
35.312634 35.349711 35.387719 35.426661 35.466450 35.507083 35.548463 35.590582
35.633335 35.676707 35.720588 35.764955 35.809691 35.854769 35.900066 35.945548
35.991089 36.036649 36.082099 36.127395 36.172404 36.217079 36.261287 36.304976
36.348014 36.390348 36.431846 36.472453 36.512043 36.550559 36.587879 36.623947
36.658648 36.691927 36.723677 36.753846 36.782334 36.809094 36.834038 36.857122
36.878270 36.897442 36.914576 36.929640 36.942582 36.953380 36.961995 36.968411
36.972607 36.974573 36.974303 36.971796 36.967060 36.960103 36.950948 36.939611
36.926129 36.910526 36.892854 36.873143 36.851458 36.827837 36.802357 36.775062
36.746040 36.715339 36.683058 36.649250 36.614022 36.577430 36.539588 36.500553
36.460447 36.419328 36.377322 36.334485 36.290948 36.246766 36.202071 36.156916
36.111432 36.065671 36.019763 35.973754 35.927774 35.881864 35.836150 35.790667
35.745537 35.700792 35.656547 35.612825 35.569739 35.527305 35.485629 35.444718
35.404672 35.365494 35.327274 35.290007 35.253777 35.218571 35.184466 35.151442
35.119567 35.088815 35.059245 35.030826 35.003608 34.977554 34.952705 34.929020
34.906531 34.885191 34.865026 34.845983 34.828079 34.811259 34.795533 34.780840
34.767183 34.754501 34.742786 34.731975 34.722056 34.712963 34.704676 34.697128
34.690295 34.684108 34.678536 34.673513 34.669000 34.664931 34.661264 34.657934
34.654893 34.652079 34.649439 34.646912 34.644444
35.022222 35.027099 35.032043 35.037115 35.042386 35.047914 35.053770 35.060009
35.066704 35.073903 35.081681 35.090081 35.099178 35.109008 35.119647 35.131124
35.143513 35.156836 35.171166 35.186519 35.202963 35.220507 35.239218 35.259093
35.280197 35.302520 35.326122 35.350982 35.377158 35.404618 35.433414 35.463507
35.494941 35.527668 35.561727 35.597057 35.633693 35.671564 35.710695 35.751008
35.792521 35.835145 35.878890 35.923659 35.969452 36.016164 36.063788 36.112210
36.161414 36.211279 36.261781 36.312792 36.364281 36.416112 36.468248 36.520547
36.572965 36.625358 36.677675 36.729767 36.781579 36.832961 36.883854 36.934106
36.983655 37.032352 37.080131 37.126846 37.172430 37.216743 37.259716 37.301215
37.341176 37.379469 37.416033 37.450749 37.483558 37.514355 37.543084 37.569651
37.594008 37.616075 37.635811 37.653150 37.668059 37.680488 37.690413 37.697800
37.702635 37.704901 37.704592 37.701709 37.696257 37.688252 37.677710 37.664664
37.649139 37.631184 37.610833 37.588151 37.563179 37.535999 37.506657 37.475250
37.441830 37.406506 37.369336 37.330439 37.289876 37.247778 37.204208 37.159303
37.113129 37.065829 37.017470 36.968198 36.918079 36.867264 36.815815 36.763883
36.711530 36.658906 36.606066 36.553161 36.500241 36.447452 36.394840 36.342546
36.290609 36.239165 36.188247 36.137984 36.088399 36.039618 35.991655 35.944626
35.898540 35.853503 35.809515 35.766675 35.724975 35.684504 35.645246 35.607281
35.570586 35.535230 35.501183 35.468507 35.437161 35.407199 35.378575 35.351331
35.325417 35.300864 35.277618 35.255700 35.235051 35.215684 35.197534 35.180607
35.164833 35.150210 35.136665 35.124189 35.112706 35.102197 35.092588 35.083851
35.075911 35.068733 35.062242 35.056396 35.051120 35.046368 35.042065 35.038158
35.034574 35.031257 35.028134 35.025146 35.022222
35.400000 35.405624 35.411321 35.417167 35.423232 35.429595 35.436319 35.443487
35.451156 35.459410 35.468302 35.477915 35.488294 35.499525 35.511644 35.524736
35.538831 35.554011 35.570298 35.587773 35.606448 35.626401 35.647634 35.670224
35.694162 35.719520 35.746280 35.774508 35.804176 35.835345 35.867976 35.902123
35.937737 35.974865 36.013446 36.053521 36.095017 36.137967 36.182288 36.228003
36.275019 36.323351 36.372895 36.423656 36.475520 36.528483 36.582422 36.637324
36.693054 36.749593 36.806797 36.864636 36.922961 36.981732 37.040793 37.100098
37.159485 37.218899 37.278175 37.337252 37.395962 37.454237 37.511909 37.568908
37.625062 37.680300 37.734453 37.787447 37.839117 37.889389 37.938104 37.985187
38.030490 38.073939 38.115395 38.154788 38.191990 38.226937 38.259514 38.289664
38.317286 38.342331 38.364713 38.384393 38.401303 38.415411 38.426669 38.435056
38.440542 38.443116 38.442769 38.439500 38.433320 38.424239 38.412287 38.397485
38.379882 38.359510 38.336435 38.310699 38.282386 38.251546 38.218280 38.182646
38.144758 38.104681 38.062544 38.018415 37.972435 37.924677 37.875292 37.824353
37.772020 37.718369 37.663563 37.607678 37.550883 37.493252 37.434954 37.376061
37.316743 37.257067 37.197204 37.137213 37.077263 37.017407 36.957810 36.898518
36.839690 36.781364 36.723693 36.666706 36.610549 36.555243 36.500924 36.447604
36.395411 36.344348 36.294533 36.245958 36.198732 36.152841 36.108379 36.065324
36.023761 35.983660 35.945093 35.908022 35.872510 35.838511 35.806075 35.775151
35.745778 35.717898 35.691541 35.666640 35.643217 35.621200 35.600600 35.581342
35.563426 35.546773 35.531374 35.517148 35.504076 35.492075 35.481119 35.471121
35.462048 35.453813 35.446374 35.439646 35.433579 35.428087 35.423116 35.418581
35.414421 35.410554 35.406912 35.403418 35.400000
35.777778 35.784195 35.790696 35.797359 35.804273 35.811510 35.819162 35.827296
35.836004 35.845349 35.855424 35.866282 35.878020 35.890683 35.904365 35.919104
35.934993 35.952062 35.970401 35.990029 36.011036 36.033430 36.057297 36.082634
36.109523 36.137951 36.167993 36.199626 36.232920 36.267838 36.304444 36.342689
36.382630 36.424206 36.467466 36.512336 36.558856 36.606941 36.656622 36.707801
36.760498 36.814604 36.870131 36.926957 36.985082 37.044374 37.104824 37.166288
37.228747 37.292046 37.356157 37.420917 37.486287 37.552096 37.618294 37.684706
37.751273 37.817813 37.884261 37.950429 38.016246 38.081523 38.146182 38.210035
38.272998 38.334884 38.395608 38.454986 38.512931 38.569264 38.623899 38.676665
38.727477 38.776174 38.822675 38.866830 38.908562 38.947737 38.984284 39.018084
39.049075 39.077153 39.102267 39.124332 39.143307 39.159127 39.171761 39.181167
39.187326 39.190216 39.189830 39.186169 39.179239 39.169062 39.155657 39.139067
39.119322 39.096487 39.070604 39.041758 39.010000 38.975435 38.938122 38.898184
38.855690 38.810776 38.763517 38.714066 38.662501 38.608987 38.553607 38.496533
38.437852 38.377744 38.316295 38.253690 38.190015 38.125460 38.060105 37.994143
37.927649 37.860817 37.793716 37.726537 37.659344 37.592321 37.525527 37.459141
37.393212 37.327912 37.263281 37.199485 37.136553 37.074641 37.013768 36.954082
36.895591 36.838432 36.782603 36.728229 36.675299 36.623926 36.574089 36.525889
36.479296 36.434397 36.391155 36.349644 36.309817 36.271738 36.235351 36.200707
36.167744 36.136500 36.106906 36.078989 36.052674 36.027977 36.004816 35.983198
35.963036 35.944325 35.926975 35.910972 35.896222 35.882701 35.870314 35.859026
35.848744 35.839422 35.830965 35.823323 35.816399 35.810135 35.804436 35.799237
35.794445 35.789989 35.785779 35.781737 35.777778
36.155556 36.162819 36.170173 36.177712 36.185519 36.193694 36.202316 36.211484
36.221271 36.231781 36.243076 36.255262 36.268393 36.282575 36.297855 36.314335
36.332053 36.351111 36.371536 36.393427 36.416801 36.441754 36.468289 36.496499
36.526376 36.558008 36.591373 36.626554 36.663515 36.702333 36.742960 36.785463
36.829781 36.875974 36.923967 36.973810 37.025414 37.078820 37.133925 37.190760
37.249209 37.309291 37.370878 37.433976 37.498445 37.564281 37.631331 37.699579
37.768860 37.839148 37.910266 37.982178 38.054699 38.127779 38.201225 38.274980
38.348842 38.422744 38.496481 38.569976 38.643021 38.715533 38.787301 38.858237
38.928130 38.996888 39.064303 39.130280 39.194616 39.257216 39.317884 39.376525
39.432954 39.487077 39.538723 39.587803 39.634157 39.677704 39.718303 39.755878
39.790307 39.821524 39.849426 39.873960 39.895044 39.912636 39.926677 39.937138
39.943985 39.947202 39.946778 39.942713 39.935019 39.923709 39.908821 39.890382
39.868452 39.843071 39.814324 39.782262 39.746990 39.708572 39.667133 39.622746
39.575554 39.525639 39.473161 39.418207 39.360951 39.301487 39.240000 39.176586
39.111440 39.044660 38.976448 38.906900 38.836225 38.764516 38.691984 38.618718
38.544930 38.470704 38.396250 38.321644 38.247094 38.172668 38.098568 38.024852
37.951717 37.879212 37.807523 37.736689 37.666888 37.598148 37.530635 37.464366
37.399496 37.336031 37.274113 37.213738 37.155034 37.097986 37.042711 36.989180
36.937497 36.887625 36.839653 36.793533 36.749343 36.707024 36.666640 36.628126
36.591530 36.556780 36.523912 36.492844 36.463602 36.436098 36.410344 36.386248
36.363808 36.342928 36.323597 36.305713 36.289255 36.274118 36.260269 36.247605
36.236080 36.225590 36.216082 36.207451 36.199635 36.192529 36.186064 36.180138
36.174674 36.169571 36.164747 36.160105 36.155556
36.533333 36.541499 36.549767 36.558232 36.566999 36.576160 36.585822 36.596070
36.607014 36.618729 36.631330 36.644882 36.659499 36.675239 36.692215 36.710473
36.730127 36.751211 36.773838 36.798029 36.823894 36.851443 36.880780 36.911903
36.944910 36.979788 37.016627 37.055399 37.096190 37.138956 37.183774 37.230587
37.279463 37.330330 37.383245 37.438123 37.495010 37.553804 37.614543 37.677109
37.741527 37.807665 37.875537 37.944995 38.016042 38.088516 38.162406 38.237538
38.313889 38.391272 38.469651 38.548828 38.628756 38.709226 38.790180 38.871402
38.952820 39.034214 39.115501 39.196456 39.276988 39.356869 39.436001 39.514155
39.591228 39.666991 39.741340 39.814047 39.885008 39.954002 40.020924 40.085562
40.147813 40.207479 40.264460 40.318570 40.369717 40.417734 40.462534 40.503969
40.541964 40.576391 40.607186 40.634246 40.657517 40.676923 40.692423 40.703965
40.711527 40.715080 40.714618 40.710140 40.701654 40.689187 40.672763 40.652434
40.628239 40.600257 40.568540 40.533192 40.494277 40.451923 40.406206 40.357275
40.305214 40.250193 40.192304 40.131733 40.068581 40.003045 39.935230 39.865348
39.793505 39.719921 39.644704 39.568079 39.490153 39.411157 39.331191 39.250488
39.169146 39.087395 39.005325 38.923165 38.840997 38.759043 38.677376 38.596213
38.515616 38.435792 38.356792 38.278814 38.201897 38.126228 38.051834 37.978888
37.907406 37.837548 37.769317 37.702860 37.638166 37.575369 37.514446 37.455517
37.398546 37.343639 37.290747 37.239963 37.191229 37.144620 37.100069 37.057637
37.017248 36.978948 36.942654 36.908396 36.876084 36.845737 36.817255 36.790645
36.765803 36.742721 36.721291 36.701494 36.683219 36.666433 36.651023 36.636946
36.624087 36.612393 36.601749 36.592091 36.583304 36.575317 36.568015 36.561318
36.555115 36.549319 36.543821 36.538528 36.533333
36.911111 36.920242 36.929481 36.938940 36.948721 36.958942 36.969695 36.981102
36.993249 37.006259 37.020208 37.035222 37.051367 37.068767 37.087480 37.107628
37.129257 37.152489 37.177356 37.203978 37.232374 37.262659 37.294838 37.329023
37.365205 37.403487 37.443847 37.486381 37.531051 37.577945 37.627010 37.678323
37.731816 37.787557 37.845461 37.905584 37.967825 38.032229 38.098679 38.167206
38.237678 38.310113 38.384362 38.460431 38.538154 38.617525 38.698362 38.780645
38.864179 38.948930 39.034690 39.121411 39.208874 39.297017 39.385613 39.474587
39.563701 39.652871 39.741852 39.830551 39.918718 40.006250 40.092895 40.178544
40.262945 40.345984 40.427413 40.507113 40.584841 40.660479 40.733792 40.804662
40.872868 40.938293 41.000731 41.060071 41.116123 41.168786 41.217887 41.263336
41.304983 41.342748 41.376507 41.406193 41.431707 41.452999 41.469996 41.482663
41.490958 41.494862 41.494361 41.489456 41.480160 41.466492 41.448495 41.426203
41.399689 41.369004 41.334247 41.295485 41.252842 41.206398 41.156304 41.102650
41.045610 40.985283 40.921862 40.855456 40.786275 40.714432 40.640152 40.563553
40.484869 40.404221 40.321852 40.237880 40.152555 40.065993 39.978446 39.890024
39.800981 39.711420 39.621592 39.531591 39.441665 39.351899 39.262533 39.173640
39.085452 38.998031 38.911599 38.826205 38.742059 38.659195 38.577813 38.497933
38.419739 38.343239 38.268602 38.195823 38.125054 38.056278 37.989631 37.925082
37.862753 37.802599 37.744725 37.689075 37.635739 37.584648 37.535877 37.489348
37.445117 37.403098 37.363333 37.325725 37.290302 37.256961 37.225713 37.196449
37.169167 37.143752 37.120188 37.098356 37.078227 37.059680 37.042672 37.027079
37.012848 36.999855 36.988034 36.977261 36.967462 36.958512 36.950328 36.942786
36.935797 36.929240 36.923015 36.917008 36.911111
37.288889 37.299049 37.309330 37.319843 37.330713 37.342048 37.353975 37.366593
37.380034 37.394386 37.409783 37.426303 37.444082 37.463187 37.483752 37.505833
37.529562 37.554983 37.582226 37.611321 37.642392 37.675457 37.710635 37.747928
37.787449 37.829185 37.873243 37.919590 37.968328 38.019406 38.072916 38.128791
38.187112 38.247795 38.310908 38.376351 38.444179 38.514274 38.586679 38.661257
38.738037 38.816865 38.897756 38.980539 39.065214 39.151593 39.239661 39.329215
39.420224 39.512472 39.605911 39.700312 39.795614 39.891574 39.988119 40.084994
40.182114 40.279216 40.376202 40.472804 40.568914 40.664258 40.758721 40.852028
40.944056 41.034534 41.123332 41.210183 41.294957 41.377394 41.457362 41.534614
41.609020 41.680346 41.748468 41.813168 41.874330 41.931755 41.985338 42.034903
42.080357 42.121547 42.158395 42.190777 42.218629 42.241857 42.260415 42.274238
42.283298 42.287564 42.287025 42.281682 42.271544 42.256644 42.237009 42.212705
42.183777 42.150320 42.112397 42.070134 42.023609 41.972973 41.918321 41.859829
41.797602 41.731841 41.662660 41.590280 41.514823 41.436525 41.355515 41.272044
41.186242 41.098370 41.008559 40.917078 40.824056 40.729766 40.634332 40.538030
40.440977 40.343447 40.245550 40.147555 40.049561 39.951834 39.854459 39.757693
39.661611 39.566459 39.472296 39.379357 39.287689 39.197512 39.108858 39.021932
38.936751 38.853506 38.772198 38.693002 38.615903 38.541060 38.468445 38.398197
38.330276 38.264803 38.201723 38.141142 38.082993 38.027362 37.974170 37.923489
37.875228 37.829439 37.786026 37.745022 37.706321 37.669943 37.635773 37.603814
37.573947 37.546160 37.520326 37.496420 37.474313 37.453965 37.435243 37.418094
37.402385 37.388050 37.374955 37.363024 37.352121 37.342162 37.333013 37.324577
37.316725 37.309352 37.302331 37.295551 37.288889
37.666667 37.677928 37.689315 37.700960 37.712981 37.725515 37.738672 37.752594
37.767380 37.783174 37.800068 37.818205 37.837665 37.858593 37.881055 37.905197
37.931072 37.958821 37.988484 38.020200 38.053994 38.089998 38.128222 38.168794
38.211706 38.257079 38.304887 38.355244 38.408107 38.463577 38.521595 38.582252
38.645469 38.711326 38.779725 38.850731 38.924230 39.000272 39.078722 39.159618
39.242806 39.328306 39.415948 39.505736 39.597479 39.691167 39.786592 39.883726
39.982346 40.082407 40.183670 40.286075 40.389368 40.493475 40.598127 40.703238
40.808529 40.913899 41.019061 41.123901 41.228128 41.331617 41.434075 41.535367
41.635200 41.733434 41.829778 41.924089 42.016081 42.105610 42.192401 42.276311
42.357076 42.434560 42.508514 42.578809 42.645216 42.707615 42.765800 42.819664
42.869027 42.913795 42.953817 42.989015 43.019271 43.044523 43.064685 43.079717
43.089565 43.094210 43.093633 43.087835 43.076833 43.060648 43.039332 43.012927
42.981520 42.945170 42.903998 42.858081 42.807570 42.752560 42.693229 42.629688
42.562141 42.490710 42.415622 42.337009 42.255118 42.170088 42.082183 41.991545
41.898453 41.803048 41.705620 41.606311 41.505415 41.403070 41.299573 41.195058
41.089821 40.983987 40.877850 40.771525 40.665299 40.559275 40.453735 40.348766
40.244639 40.141428 40.039393 39.938591 39.839268 39.741467 39.645416 39.551143
39.458860 39.368578 39.280493 39.194599 39.111073 39.029895 38.951222 38.875018
38.801423 38.730386 38.662028 38.596283 38.533253 38.472861 38.415189 38.360147
38.307800 38.258046 38.210933 38.166349 38.124323 38.084736 38.047599 38.012785
37.980290 37.949980 37.921835 37.895717 37.871590 37.849313 37.828835 37.810011
37.792780 37.776995 37.762581 37.749390 37.737337 37.726277 37.716111 37.706696
37.697926 37.689660 37.681784 37.674160 37.666667
38.044444 38.056879 38.069452 38.082295 38.095552 38.109347 38.123828 38.139109
38.155344 38.172634 38.191135 38.210939 38.232201 38.255001 38.279492 38.305742
38.333904 38.364028 38.396265 38.430650 38.467329 38.506323 38.547769 38.591672
38.638163 38.687227 38.738988 38.793413 38.850615 38.910541 38.973295 39.038804
39.107159 39.178266 39.252204 39.328859 39.408294 39.490376 39.575152 39.662468
39.752356 39.844640 39.939336 40.036249 40.135377 40.236505 40.339613 40.444469
40.551035 40.659061 40.768491 40.879060 40.990695 41.103117 41.216234 41.329757
41.443579 41.557398 41.671096 41.784362 41.897066 42.008892 42.119699 42.229169
42.337154 42.443338 42.547566 42.649526 42.749061 42.845868 42.939790 43.030535
43.117950 43.201758 43.281812 43.357856 43.429750 43.497261 43.560262 43.618547