# vtk DataFile Version 3.0
Steady-state temperature (Jacobi)
ASCII
DATASET STRUCTURED_POINTS
DIMENSIONS 181 181 1
ORIGIN 0.0 0.0 0.0
SPACING 0.05 0.05 1.0
POINT_DATA 32761
SCALARS Temperature float 1
LOOKUP_TABLE default
32.000000 32.000000 32.000000 32.000000 32.000000 32.000000 32.000000 32.000000
32.000000 32.000000 32.000000 32.000000 32.000000 32.000000 32.000000 32.000000
32.000000 32.000000 32.000000 32.000000 32.000000 32.000000 32.000000 32.000000
32.000000 32.000000 32.000000 32.000000 32.000000 32.000000 32.000000 32.000000
32.000000 32.000000 32.000000 32.000000 32.000000 32.000000 32.000000 32.000000
32.000000 32.000000 32.000000 32.000000 32.000000 32.000000 32.000000 32.000000
32.000000 32.000000 32.000000 32.000000 32.000000 32.000000 32.000000 32.000000
32.000000 32.000000 32.000000 32.000000 32.000000 32.000000 32.000000 32.000000
32.000000 32.000000 32.000000 32.000000 32.000000 32.000000 32.000000 32.000000
32.000000 32.000000 32.000000 32.000000 32.000000 32.000000 32.000000 32.000000
32.000000 32.000000 32.000000 32.000000 32.000000 32.000000 32.000000 32.000000
32.000000 32.000000 32.000000 32.000000 32.000000 32.000000 32.000000 32.000000
32.000000 32.000000 32.000000 32.000000 32.000000 32.000000 32.000000 32.000000
32.000000 32.000000 32.000000 32.000000 32.000000 32.000000 32.000000 32.000000
32.000000 32.000000 32.000000 32.000000 32.000000 32.000000 32.000000 32.000000
32.000000 32.000000 32.000000 32.000000 32.000000 32.000000 32.000000 32.000000
32.000000 32.000000 32.000000 32.000000 32.000000 32.000000 32.000000 32.000000
32.000000 32.000000 32.000000 32.000000 32.000000 32.000000 32.000000 32.000000
32.000000 32.000000 32.000000 32.000000 32.000000 32.000000 32.000000 32.000000
32.000000 32.000000 32.000000 32.000000 32.000000 32.000000 32.000000 32.000000
32.000000 32.000000 32.000000 32.000000 32.000000 32.000000 32.000000 32.000000
32.000000 32.000000 32.000000 32.000000 32.000000 32.000000 32.000000 32.000000
32.000000 32.000000 32.000000 32.000000 32.000000
32.377778 32.389579 32.401382 32.413187 32.424997 32.436812 32.448634 32.460464
32.472304 32.484154 32.496015 32.507890 32.519777 32.531679 32.543596 32.555528
32.567476 32.579440 32.591420 32.603417 32.615429 32.627456 32.639499 32.651556
32.663625 32.675707 32.687799 32.699899 32.712007 32.724119 32.736234 32.748348
32.760459 32.772563 32.784657 32.796738 32.808801 32.820841 32.832855 32.844838
32.856784 32.868688 32.880543 32.892345 32.904086 32.915761 32.927361 32.938881
32.950312 32.961647 32.972878 32.983996 32.994994 33.005863 33.016594 33.027177
33.037605 33.047866 33.057953 33.067856 33.077564 33.087069 33.096360 33.105427
33.114262 33.122853 33.131192 33.139270 33.147075 33.154600 33.161835 33.168771
33.175399 33.181712 33.187700 33.193356 33.198673 33.203643 33.208259 33.212516
33.216407 33.219927 33.223072 33.225836 33.228215 33.230207 33.231808 33.233017
33.233831 33.234250 33.234273 33.233899 33.233130 33.231967 33.230411 33.228466
33.226133 33.223416 33.220319 33.216847 33.213005 33.208798 33.204232 33.199313
33.194049 33.188446 33.182513 33.176256 33.169685 33.162808 33.155633 33.148169
33.140427 33.132414 33.124141 33.115618 33.106853 33.097858 33.088641 33.079212
33.069582 33.059760 33.049755 33.039578 33.029238 33.018744 33.008105 32.997331
32.986430 32.975411 32.964283 32.953054 32.941731 32.930322 32.918835 32.907278
32.895657 32.883978 32.872248 32.860474 32.848660 32.836813 32.824938 32.813039
32.801122 32.789190 32.777248 32.765299 32.753347 32.741396 32.729447 32.717504
32.705569 32.693645 32.681732 32.669834 32.657951 32.646084 32.634235 32.622404
32.610592 32.598799 32.587026 32.575272 32.563538 32.551822 32.540125 32.528446
32.516784 32.505138 32.493508 32.481892 32.470289 32.458699 32.447118 32.435547
32.423984 32.412427 32.400875 32.389325 32.377778
32.755556 32.779159 32.802765 32.826377 32.849997 32.873629 32.897274 32.920936
32.944616 32.968318 32.992043 33.015793 33.039570 33.063375 33.087211 33.111077
33.134975 33.158905 33.182868 33.206863 33.230890 33.254948 33.279036 33.303153
33.327295 33.351462 33.375650 33.399855 33.424074 33.448303 33.472536 33.496769
33.520996 33.545210 33.569404 33.593571 33.617702 33.641790 33.665825 33.689797
33.713696 33.737510 33.761229 33.784840 33.808331 33.831688 33.854897 33.877945
33.900816 33.923495 33.945966 33.968212 33.990218 34.011965 34.033437 34.054614
34.075479 34.096013 34.116197 34.136013 34.155440 34.174459 34.193051 34.211197
34.228876 34.246070 34.262758 34.278923 34.294544 34.309603 34.324082 34.337963
34.351229 34.363862 34.375847 34.387167 34.397808 34.407754 34.416994 34.425514
34.433302 34.440347 34.446640 34.452172 34.456935 34.460922 34.464127 34.466546
34.468176 34.469014 34.469059 34.468311 34.466772 34.464444 34.461330 34.457436
34.452766 34.447328 34.441130 34.434181 34.426491 34.418071 34.408932 34.399088
34.388552 34.377339 34.365464 34.352942 34.339791 34.326027 34.311668 34.296731
34.281236 34.265201 34.248646 34.231588 34.214049 34.196047 34.177603 34.158735
34.139464 34.119810 34.099790 34.079426 34.058735 34.037737 34.016449 33.994891
33.973080 33.951033 33.928767 33.906299 33.883644 33.860818 33.837837 33.814714
33.791463 33.768097 33.744631 33.721075 33.697441 33.673740 33.649983 33.626179
33.602338 33.578469 33.554579 33.530676 33.506768 33.482860 33.458958 33.435067
33.411194 33.387341 33.363512 33.339712 33.315943 33.292206 33.268505 33.244841
33.221214 33.197626 33.174077 33.150567 33.127096 33.103663 33.080267 33.056907
33.033581 33.010289 32.987027 32.963794 32.940587 32.917404 32.894242 32.871099
32.847972 32.824857 32.801751 32.778652 32.755556
33.133333 33.168741 33.204153 33.239574 33.275007 33.310457 33.345928 33.381424
33.416948 33.452504 33.488095 33.523723 33.559393 33.595105 33.630863 33.666667
33.702519 33.738420 33.774370 33.810369 33.846416 33.882510 33.918650 33.954832
33.991055 34.027313 34.063604 34.099922 34.136261 34.172615 34.208977 34.245338
34.281690 34.318024 34.354329 34.390594 34.426807 34.462954 34.499022 34.534997
34.570862 34.606602 34.642199 34.677635 34.712891 34.747947 34.782782 34.817376
34.851704 34.885745 34.919475 34.952869 34.985901 35.018547 35.050779 35.082570
35.113893 35.144720 35.175022 35.204771 35.233938 35.262493 35.290408 35.317652
35.344197 35.370013 35.395071 35.419342 35.442798 35.465411 35.487154 35.507998
35.527919 35.546890 35.564887 35.581887 35.597867 35.612805 35.626681 35.639476
35.651172 35.661753 35.671204 35.679512 35.686664 35.692652 35.697466 35.701099
35.703547 35.704805 35.704873 35.703750 35.701438 35.697941 35.693265 35.687416
35.680402 35.672235 35.662927 35.652490 35.640941 35.628295 35.614571 35.599787
35.583965 35.567126 35.549292 35.530488 35.510739 35.490070 35.468508 35.446079
35.422812 35.398735 35.373876 35.348264 35.321929 35.294901 35.267208 35.238880
35.209948 35.180439 35.150384 35.119812 35.088750 35.057228 35.025272 34.992910
34.960169 34.927075 34.893653 34.859927 34.825923 34.791663 34.757169 34.722464
34.687568 34.652500 34.617282 34.581929 34.546461 34.510893 34.475241 34.439520
34.403744 34.367925 34.332077 34.296210 34.260334 34.224460 34.188596 34.152749
34.116929 34.081140 34.045388 34.009679 33.974016 33.938404 33.902845 33.867341
33.831895 33.796506 33.761177 33.725907 33.690695 33.655540 33.620442 33.585398
33.550406 33.515463 33.480567 33.445714 33.410901 33.376124 33.341379 33.306661
33.271967 33.237292 33.202631 33.167980 33.133333
33.511111 33.558327 33.605548 33.652780 33.700030 33.747302 33.794603 33.841936
33.889307 33.936722 33.984183 34.031695 34.079262 34.126886 34.174572 34.222320
34.270132 34.318010 34.365954 34.413964 34.462039 34.510178 34.558378 34.606636
34.654948 34.703309 34.751714 34.800156 34.848627 34.897119 34.945623 34.994127
35.042620 35.091090 35.139522 35.187902 35.236213 35.284439 35.332560 35.380558
35.428411 35.476098 35.523596 35.570880 35.617925 35.664704 35.711191 35.757355
35.803169 35.848599 35.893616 35.938185 35.982273 36.025846 36.068868 36.111304
36.153115 36.194266 36.234718 36.274432 36.313369 36.351492 36.388760 36.425135
36.460576 36.495045 36.528504 36.560912 36.592233 36.622429 36.651462 36.679297
36.705900 36.731235 36.755270 36.777972 36.799313 36.819263 36.837795 36.854884
36.870505 36.884637 36.897260 36.908356 36.917910 36.925907 36.932337 36.937189
36.940458 36.942139 36.942229 36.940729 36.937641 36.932971 36.926724 36.918911
36.909544 36.898635 36.886202 36.872263 36.856837 36.839947 36.821617 36.801873
36.780742 36.758253 36.734437 36.709325 36.682951 36.655350 36.626556 36.596606
36.565537 36.533388 36.500195 36.465998 36.430836 36.394750 36.357777 36.319958
36.281332 36.241939 36.201817 36.161006 36.119542 36.077465 36.034811 35.991616
35.947916 35.903746 35.859140 35.814130 35.768750 35.723029 35.676998 35.630686
35.584120 35.537328 35.490334 35.443164 35.395840 35.348385 35.300819 35.253162
35.205432 35.157648 35.109824 35.061977 35.014119 34.966264 34.918424 34.870609
34.822829 34.775092 34.727405 34.679777 34.632211 34.584714 34.537288 34.489937
34.442663 34.395467 34.348351 34.301314 34.254355 34.207474 34.160668 34.113935
34.067271 34.020674 33.974139 33.927663 33.881240 33.834865 33.788532 33.742238
33.695974 33.649736 33.603517 33.557311 33.511111
33.888889 33.947916 34.006951 34.066000 34.125070 34.184169 34.243304 34.302480
34.361704 34.420981 34.480319 34.539720 34.599191 34.658734 34.718355 34.778054
34.837835 34.897699 34.957647 35.017678 35.077791 35.137985 35.198257 35.258603
35.319018 35.379496 35.440029 35.500611 35.561231 35.621879 35.682542 35.743208
35.803863 35.864489 35.925071 35.985588 36.046022 36.106351 36.166551 36.226599
36.286468 36.346131 36.405559 36.464722 36.523588 36.582124 36.640295 36.698066
36.755399 36.812256 36.868596 36.924379 36.979562 37.034102 37.087954 37.141074
37.193416 37.244931 37.295573 37.345295 37.394045 37.441778 37.488441 37.533988
37.578367 37.621531 37.663430 37.704016 37.743241 37.781058 37.817421 37.852284
37.885603 37.917336 37.947441 37.975879 38.002611 38.027602 38.050816 38.072223
38.091792 38.109496 38.125309 38.139210 38.151179 38.161197 38.169252 38.175331
38.179427 38.181532 38.181645 38.179765 38.175896 38.170044 38.162218 38.152430
38.140694 38.127028 38.111452 38.093989 38.074664 38.053505 38.030543 38.005810
37.979339 37.951169 37.921337 37.889883 37.856849 37.822279 37.786216 37.748706
37.709796 37.669533 37.627966 37.585142 37.541113 37.495925 37.449631 37.402278
37.353918 37.304597 37.254367 37.203275 37.151369 37.098697 37.045304 36.991237
36.936539 36.881256 36.825428 36.769098 36.712305 36.655089 36.597487 36.539535
36.481268 36.422720 36.363922 36.304904 36.245697 36.186327 36.126821 36.067203
36.007497 35.947723 35.887902 35.828053 35.768194 35.708339 35.648505 35.588704
35.528948 35.469247 35.409612 35.350050 35.290568 35.231173 35.171869 35.112659
35.053547 34.994535 34.935622 34.876810 34.818096 34.759480 34.700960 34.642531
34.584190 34.525932 34.467754 34.409649 34.351610 34.293633 34.235710 34.177833
34.119996 34.062191 34.004410 33.946646 33.888889
34.266667 34.337511 34.408364 34.479235 34.550132 34.621063 34.692037 34.763062
34.834145 34.905293 34.976514 35.047812 35.119195 35.190666 35.262230 35.333890
35.405650 35.477510 35.549473 35.621537 35.693702 35.765965 35.838324 35.910773
35.983307 36.055919 36.128600 36.201341 36.274130 36.346955 36.419801 36.492653
36.565493 36.638303 36.711061 36.783745 36.856332 36.928794 37.001106 37.073237
37.145157 37.216832 37.288228 37.359309 37.430036 37.500369 37.570268 37.639689
37.708586 37.776914 37.844625 37.911668 37.977995 38.043551 38.108284 38.172139
38.235061 38.296994 38.357879 38.417659 38.476276 38.533670 38.589783 38.644553
38.697923 38.749833 38.800224 38.849038 38.896217 38.941704 38.985443 39.027380
39.067461 39.105635 39.141853 39.176065 39.208226 39.238292 39.266223 39.291979
39.315524 39.336825 39.355853 39.372579 39.386980 39.399035 39.408727 39.416042
39.420970 39.423503 39.423638 39.421376 39.416720 39.409677 39.400260 39.388481
39.374358 39.357914 39.339171 39.318158 39.294906 39.269448 39.241820 39.212062
39.180215 39.146324 39.110434 39.072595 39.032856 38.991270 38.947890 38.902772
38.855971 38.807545 38.757551 38.706050 38.653099 38.598760 38.543091 38.486152
38.428003 38.368704 38.308312 38.246888 38.184488 38.121170 38.056989 37.992000
37.926256 37.859811 37.792715 37.725019 37.656769 37.588015 37.518799 37.449166
37.379158 37.308815 37.238175 37.167275 37.096149 37.024831 36.953352 36.881742
36.810028 36.738236 36.666391 36.594515 36.522628 36.450751 36.378900 36.307091
36.235338 36.163655 36.092052 36.020540 35.949125 35.877817 35.806620 35.735538
35.664575 35.593734 35.523013 35.452415 35.381937 35.311578 35.241333 35.171201
35.101174 35.031250 34.961421 34.891680 34.822021 34.752436 34.682915 34.613452
34.544037 34.474660 34.405313 34.335985 34.266667
34.644444 34.727112 34.809790 34.892489 34.975219 35.057989 35.140810 35.223691
35.306640 35.389667 35.472779 35.555983 35.639286 35.722695 35.806213 35.889846
35.973597 36.057467 36.141458 36.225570 36.309802 36.394151 36.478614 36.563185
36.647858 36.732624 36.817475 36.902398 36.987381 37.072409 37.157465 37.242531
37.327587 37.412611 37.497578 37.582464 37.667238 37.751873 37.836334 37.920590
38.004602 38.088332 38.171741 38.254786 38.337422 38.419603 38.501279 38.582402
38.662917 38.742772 38.821909 38.900271 38.977798 39.054430 39.130103 39.204755
39.278320 39.350732 39.421923 39.491826 39.560372 39.627491 39.693115 39.757174
39.819597 39.880316 39.939260 39.996363 40.051555 40.104770 40.155943 40.205010
40.251907 40.296575 40.338954 40.378988 40.416623 40.451809 40.484495 40.514638
40.542194 40.567125 40.589394 40.608970 40.625825 40.639935 40.651279 40.659840
40.665607 40.668572 40.668729 40.666081 40.660631 40.652387 40.641363 40.627575
40.611045 40.591797 40.569860 40.545266 40.518051 40.488256 40.455922 40.421096
40.383827 40.344167 40.302170 40.257893 40.211395 40.162738 40.111984 40.059198
40.004447 39.947796 39.889315 39.829073 39.767139 39.703584 39.638476 39.571887
39.503887 39.434545 39.363931 39.292112 39.219156 39.145130 39.070100 38.994130
38.917282 38.839618 38.761198 38.682080 38.602321 38.521975 38.441095 38.359732
38.277935 38.195750 38.113223 38.030396 37.947311 37.864004 37.780514 37.696874
37.613117 37.529273 37.445371 37.361436 37.277493 37.193563 37.109668 37.025826
36.942053 36.858363 36.774771 36.691287 36.607921 36.524681 36.441573 36.358603
36.275774 36.193089 36.110548 36.028151 35.945896 35.863782 35.781804 35.699957
35.618237 35.536637 35.455149 35.373766 35.292479 35.211278 35.130155 35.049099
34.968100 34.887146 34.806226 34.725329 34.644444
35.022222 35.116720 35.211230 35.305765 35.400334 35.494951 35.589627 35.684372
35.779197 35.874111 35.969124 36.064244 36.159480 36.254837 36.350322 36.445941
36.541696 36.637590 36.733626 36.829802 36.926119 37.022573 37.119160 37.215875
37.312710 37.409655 37.506701 37.603833 37.701038 37.798299 37.895596 37.992910
38.090217 38.187491 38.284707 38.381832 38.478837 38.575687 38.672344 38.768770
38.864923 38.960760 39.056235 39.151298 39.245899 39.339984 39.433498 39.526383
39.618579 39.710024 39.800653 39.890400 39.979197 40.066973 40.153658 40.239178
40.323458 40.406421 40.487992 40.568092 40.646641 40.723561 40.798771 40.872191
40.943742 41.013342 41.080913 41.146375 41.209651 41.270663 41.329338 41.385599
41.439375 41.490597 41.539197 41.585110 41.628273 41.668628 41.706118 41.740691
41.772298 41.800894 41.826439 41.848895 41.868230 41.884415 41.897428 41.907248
41.913864 41.917263 41.917444 41.914404 41.908151 41.898693 41.886045 41.870228
41.851264 41.829183 41.804018 41.775806 41.744589 41.710413 41.673326 41.633382
41.590637 41.545152 41.496988 41.446212 41.392892 41.337098 41.278902 41.218381
41.155608 41.090662 41.023621 40.954565 40.883574 40.810728 40.736108 40.659795
40.581868 40.502410 40.421498 40.339211 40.255627 40.170823 40.084873 39.997852
39.909832 39.820882 39.731073 39.640470 39.549137 39.457140 39.364536 39.271385
39.177742 39.083662 38.989195 38.894391 38.799296 38.703954 38.608407 38.512695
38.416853 38.320917 38.224919 38.128889 38.032853 37.936839 37.840868 37.744963
37.649140 37.553418 37.457811 37.362331 37.266990 37.171798 37.076759 36.981882
36.887169 36.792624 36.698246 36.604036 36.509991 36.416109 36.322385 36.228814
36.135389 36.042103 35.948948 35.855913 35.762990 35.670167 35.577434 35.484778
35.392188 35.299650 35.207152 35.114680 35.022222
35.400000 35.506336 35.612686 35.719064 35.825482 35.931954 36.038494 36.145112
36.251822 36.358634 36.465559 36.572607 36.679786 36.787106 36.894572 37.002190
37.109965 37.217901 37.325999 37.434259 37.542681 37.651262 37.759996 37.868879
37.977901 38.087053 38.196322 38.305695 38.415155 38.524682 38.634257 38.743856
38.853453 38.963020 39.072527 39.181939 39.291221 39.400336 39.509240 39.617891
39.726241 39.834242 39.941842 40.048985 40.155615 40.261671 40.367090 40.471808
40.575756 40.678865 40.781060 40.882270 40.982414 41.081415 41.179192 41.275662
41.370739 41.464339 41.556374 41.646755 41.735393 41.822198 41.907080 41.989947
42.070709 42.149276 42.225556 42.299460 42.370900 42.439790 42.506042 42.569573
42.630302 42.688149 42.743037 42.794893 42.843645 42.889227 42.931575 42.970630
43.006335 43.038640 43.067498 43.092867 43.114710 43.132996 43.147697 43.158792
43.166265 43.170105 43.170308 43.166873 43.159806 43.149119 43.134828 43.116956
43.095530 43.070583 43.042151 43.010279 42.975012 42.936403 42.894509 42.849388
42.801106 42.749731 42.695333 42.637988 42.577772 42.514766 42.449052 42.380714
42.309840 42.236516 42.160832 42.082878 42.002744 41.920523 41.836305 41.750181
41.662244 41.572583 41.481289 41.388451 41.294156 41.198491 41.101541 41.003389
40.904118 40.803806 40.702532 40.600369 40.497393 40.393673 40.289278 40.184272
40.078721 39.972682 39.866217 39.759377 39.652217 39.544786 39.437130 39.329295
39.221321 39.113247 39.005110 38.896943 38.788777 38.680639 38.572557 38.464554
38.356650 38.248864 38.141213 38.033711 37.926370 37.819199 37.712208 37.605402
37.498785 37.392360 37.286128 37.180088 37.074238 36.968574 36.863091 36.757783
36.652642 36.547659 36.442825 36.338130 36.233561 36.129107 36.024756 35.920492
35.816303 35.712174 35.608091 35.504038 35.400000
35.777778 35.895961 36.014160 36.132390 36.250665 36.369002 36.487415 36.605917
36.724522 36.843243 36.962092 37.081080 37.200218 37.319513 37.438975 37.558610
37.678424 37.798419 37.918599 38.038964 38.159514 38.280245 38.401153 38.522231
38.643470 38.764858 38.886384 39.008031 39.129782 39.251614 39.373507 39.495433
39.617365 39.739271 39.861118 39.982868 40.104482 40.225916 40.347125 40.468061
40.588672 40.708902 40.828695 40.947988 41.066718 41.184819 41.302220 41.418849
41.534630 41.649485 41.763333 41.876090 41.987671 42.097986 42.206947 42.314458
42.420428 42.524758 42.627353 42.728111 42.826935 42.923723 43.018373 43.110784
43.200854 43.288481 43.373565 43.456004 43.535701 43.612556 43.686474 43.757361
43.825125 43.889677 43.950930 44.008802 44.063214 44.114089 44.161357 44.204950
44.244806 44.280868 44.313083 44.341403 44.365788 44.386202 44.402614 44.415000
44.423342 44.427628 44.427853 44.424017 44.416126 44.404193 44.388236 44.368282
44.344360 44.316508 44.284766 44.249185 44.209816 44.166717 44.119953 44.069590
44.015701 43.958362 43.897653 43.833658 43.766464 43.696160 43.622839 43.546597
43.467529 43.385734 43.301312 43.214364 43.124992 43.033298 42.939385 42.843355
42.745309 42.645351 42.543579 42.440094 42.334994 42.228376 42.120334 42.010962
41.900351 41.788590 41.675766 41.561962 41.447260 41.331739 41.215475 41.098542
40.981008 40.862943 40.744410 40.625470 40.506182 40.386601 40.266779 40.146765
40.026605 39.906343 39.786017 39.665667 39.545324 39.425022 39.304788 39.184649
39.064627 38.944744 38.825017 38.705461 38.586091 38.466916 38.347946 38.229188
38.110644 37.992320 37.874214 37.756326 37.638653 37.521191 37.403934 37.286874
37.170003 37.053312 36.936789 36.820422 36.704198 36.588104 36.472125 36.356245
36.240450 36.124722 36.009045 35.893403 35.777778
36.155556 36.285595 36.415652 36.545743 36.675887 36.806098 36.936394 37.066791
37.197304 37.327946 37.458732 37.589674 37.720784 37.852072 37.983546 38.115216
38.247086 38.379162 38.511446 38.643940 38.776642 38.909550 39.042659 39.175962
39.309449 39.443109 39.576927 39.710886 39.844967 39.979148 40.113402 40.247703
40.382019 40.516316 40.650557 40.784701 40.918705 41.052522 41.186100 41.319389
41.452329 41.584861 41.716921 41.848442 41.979353 42.109582 42.239050 42.367678
42.495382 42.622076 42.747669 42.872072 42.995186 43.116917 43.237162 43.355820
43.472785 43.587953 43.701213 43.812457 43.921574 44.028453 44.132980 44.235042
44.334527 44.431323 44.525315 44.616395 44.704449 44.789372 44.871054 44.949392
45.024284 45.095630 45.163335 45.227306 45.287455 45.343698 45.395955 45.444152
45.488218 45.528091 45.563711 45.595026 45.621990 45.644563 45.662711 45.676407
45.685631 45.690370 45.690617 45.686372 45.677644 45.664446 45.646799 45.624731
45.598276 45.567475 45.532375 45.493030 45.449499 45.401846 45.350142 45.294462
45.234888 45.171502 45.104396 45.033662 44.959396 44.881699 44.800674 44.716425
44.629060 44.538690 44.445425 44.349376 44.250659 44.149384 44.045667 43.939621
43.831360 43.720995 43.608639 43.494402 43.378392 43.260716 43.141481 43.020788
42.898740 42.775433 42.650964 42.525426 42.398909 42.271499 42.143282 42.014337
41.884742 41.754571 41.623896 41.492784 41.361298 41.229500 41.097447 40.965192
40.832788 40.700279 40.567712 40.435126 40.302559 40.170044 40.037614 39.905297
39.773118 39.641099 39.509260 39.377617 39.246186 39.114977 38.984000 38.853262
38.722769 38.592520 38.462519 38.332763 38.203249 38.073971 37.944924 37.816098
37.687484 37.559070 37.430845 37.302795 37.174905 37.047161 36.919544 36.792039
36.664629 36.537293 36.410016 36.282776 36.155556
36.533333 36.675239 36.817164 36.959127 37.101148 37.243245 37.385437 37.527740
37.670172 37.812749 37.955486 38.098396 38.241495 38.384791 38.528297 38.672020
38.815968 38.960146 39.104558 39.249205 39.394087 39.539201 39.684542 39.830102
39.975873 40.121840 40.267989 40.414302 40.560758 40.707332 40.853997 41.000724
41.147478 41.294222 41.440917 41.587517 41.733977 41.880243 42.026263 42.171977
42.317323 42.462236 42.606647 42.750480 42.893661 43.036108 43.177737 43.318460
43.458187 43.596821 43.734266 43.870419 44.005177 44.138432 44.270076 44.399993
44.528071 44.654192 44.778238 44.900086 45.019617 45.136705 45.251229 45.363063
45.472083 45.578164 45.681184 45.781018 45.877545 45.970646 46.060202 46.146098
46.228221 46.306461 46.380714 46.450875 46.516849 46.578542 46.635865 46.688737
46.737081 46.780824 46.819904 46.854262 46.883846 46.908613 46.928525 46.943552
46.953672 46.958870 46.959140 46.954480 46.944900 46.930416 46.911050 46.886833
46.857803 46.824006 46.785493 46.742324 46.694564 46.642285 46.585564 46.524486
46.459138 46.389615 46.316015 46.238441 46.157001 46.071804 45.982963 45.890597
45.794822 45.695761 45.593534 45.488267 45.380083 45.269109 45.155468 45.039287
44.920689 44.799800 44.676741 44.551633 44.424597 44.295751 44.165208 44.033084
43.899489 43.764530 43.628312 43.490938 43.352506 43.213112 43.072846 42.931799
42.790054 42.647693 42.504792 42.361428 42.217667 42.073579 41.929223 41.784661
41.639945 41.495130 41.350260 41.205383 41.060536 40.915759 40.771084 40.626543
40.482162 40.337966 40.193976 40.050210 39.906683 39.763408 39.620394 39.477649
39.335177 39.192981 39.051061 38.909415 38.768039 38.626927 38.486072 38.345463
38.205090 38.064941 37.925001 37.785255 37.645688 37.506281 37.367017 37.227878
37.088842 36.949891 36.811003 36.672157 36.533333
36.911111 37.064893 37.218696 37.372542 37.526452 37.680446 37.834544 37.988766
38.143131 38.297656 38.452358 38.607254 38.762357 38.917681 39.073236 39.229034
39.385081 39.541386 39.697951 39.854779 40.011869 40.169220 40.326826 40.484680
40.642770 40.801085 40.959608 41.118319 41.277196 41.436214 41.595343 41.754551
41.913802 42.073055 42.232268 42.391393 42.550377 42.709168 42.867705 43.025926
43.183762 43.341143 43.497993 43.654233 43.809780 43.964545 44.118437 44.271362
44.423219 44.573905 44.723314 44.871336 45.017856 45.162759 45.305923 45.447226
45.586543 45.723747 45.858707 45.991291 46.121366 46.248797 46.373450 46.495187
46.613873 46.729371 46.841546 46.950263 47.055388 47.156791 47.254341 47.347912
47.437380 47.522625 47.603530 47.679984 47.751879 47.819112 47.881588 47.939215
47.991908 48.039590 48.082190 48.119643 48.151893 48.178893 48.200599 48.216981
48.228012 48.233678 48.233969 48.228887 48.218440 48.202646 48.181530 48.155125
48.123475 48.086628 48.044642 47.997582 47.945520 47.888534 47.826711 47.760142
47.688925 47.613162 47.532963 47.448440 47.359711 47.266896 47.170121 47.069513
46.965202 46.857321 46.746005 46.631388 46.513608 46.392800 46.269104 46.142655
46.013590 45.882044 45.748152 45.612046 45.473857 45.333712 45.191740 45.048063
44.902801 44.756073 44.607993 44.458671 44.308216 44.156730 44.004314 43.851064
43.697073 43.542427 43.387213 43.231508 43.075390 42.918930 42.762196 42.605250
42.448155 42.290963 42.133728 41.976496 41.819312 41.662216 41.505244 41.348428
41.191799 41.035381 40.879199 40.723269 40.567609 40.412232 40.257149 40.102365
39.947887 39.793716 39.639853 39.486293 39.333034 39.180068 39.027386 38.874977
38.722829 38.570928 38.419259 38.267805 38.116548 37.965468 37.814547 37.663762
37.513092 37.362515 37.212008 37.061548 36.911111
37.288889 37.454558 37.620251 37.785990 37.951800 38.117702 38.283720 38.449873
38.616184 38.782672 38.949356 39.116252 39.283378 39.450747 39.618374 39.786267
39.954439 40.122894 40.291639 40.460676 40.630007 40.799627 40.969534 41.139718
41.310169 41.480874 41.651816 41.822973 41.994324 42.165839 42.337488 42.509237
42.681048 42.852876 43.024677 43.196398 43.367986 43.539380 43.710518 43.881331
44.051748 44.221691 44.391079 44.559826 44.727843 44.895034 45.061302 45.226542
45.390648 45.553507 45.715005 45.875022 46.033434 46.190115 46.344936 46.497762
46.648458 46.796884 46.942900 47.086362 47.227125 47.365044 47.499970 47.631754
47.760250 47.885307 48.006779 48.124518 48.238379 48.348219 48.453895 48.555270
48.652208 48.744578 48.832253 48.915110 48.993032 49.065906 49.133627 49.196096
49.253220 49.304914 49.351099 49.391706 49.426674 49.455947 49.479483 49.497244
49.509204 49.515346 49.515659 49.510145 49.498814 49.481684 49.458784 49.430150
49.395828 49.355873 49.310348 49.259324 49.202878 49.141099 49.074080 49.001920
48.924727 48.842614 48.755699 48.664106 48.567962 48.467401 48.362558 48.253573
48.140589 48.023749 47.903201 47.779092 47.651570 47.520787 47.386889 47.250029
47.110352 46.968007 46.823140 46.675894 46.526412 46.374835 46.221297 46.065934
45.908876 45.750252 45.590184 45.428794 45.266196 45.102505 44.937827 44.772267
44.605924 44.438894 44.271266 44.103128 43.934561 43.765643 43.596446 43.427039
43.257485 43.087846 42.918174 42.748523 42.578938 42.409463 42.240136 42.070993
41.902064 41.733378 41.564956 41.396821 41.228988 41.061473 40.894283 40.727429
40.560914 40.394740 40.228906 40.063409 39.898243 39.733401 39.568872 39.404645
39.240705 39.077038 38.913625 38.750449 38.587489 38.424725 38.262134 38.099693
37.937379 37.775167 37.613031 37.450947 37.288889
37.666667 37.844234 38.021827 38.199471 38.377192 38.555015 38.732964 38.911063
39.089335 39.267801 39.446481 39.625396 39.804563 39.983998 40.163716 40.343729
40.524048 40.704681 40.885635 41.066913 41.248515 41.430441 41.612685 41.795240
41.978094 42.161235 42.344643 42.528298 42.712175 42.896246 43.080476 43.264831
43.449268 43.633743 43.818206 44.002603 44.186874 44.370959 44.554787 44.738287
44.921381 45.103987 45.286017 45.467381 45.647981 45.827716 46.006478 46.184158
46.360640 46.535804 46.709524 46.881674 47.052118 47.220722 47.387344 47.551841
47.714065 47.873867 48.031093 48.185589 48.337196 48.485759 48.631114 48.773104
48.911565 49.046338 49.177260 49.304175 49.426921 49.545345 49.659292 49.768611
49.873156 49.972783 50.067354 50.156736 50.240799 50.319424 50.392493 50.459900
50.521543 50.577328 50.627172 50.670997 50.708736 50.740331 50.765732 50.784902
50.797809 50.804435 50.804771 50.798816 50.786581 50.768087 50.743365 50.712455
50.675407 50.632280 50.583143 50.528073 50.467157 50.400489 50.328170 50.250310
50.167026 50.078441 49.984683 49.885887 49.782193 49.673744 49.560690 49.443181
49.321372 49.195421 49.065487 48.931729 48.794311 48.653393 48.509139 48.361708
48.211264 48.057964 47.901968 47.743430 47.582506 47.419345 47.254097 47.086904
46.917910 46.747251 46.575062 46.401471 46.226605 46.050583 45.873523 45.695536
45.516729 45.337204 45.157059 44.976386 44.795273 44.613803 44.432054 44.250098
44.068005 43.885838 43.703657 43.521514 43.339462 43.157543 42.975802 42.794273
42.612991 42.431983 42.251276 42.070889 41.890842 41.711147 41.531816 41.352855
41.174271 40.996063 40.818231 40.640769 40.463673 40.286933 40.110537 39.934472
39.758723 39.583272 39.408100 39.233188 39.058513 38.884051 38.709780 38.535672
38.361703 38.187846 38.014073 37.840356 37.666667
38.044444 38.233921 38.423425 38.612985 38.802630 38.992386 39.182280 39.372337
39.562584 39.753043 39.943737 40.134688 40.325915 40.517436 40.709268 40.901424
41.093917 41.286756 41.479948 41.673497 41.867407 42.061674 42.256296 42.451263
42.646566 42.842190 43.038117 43.234323 43.430786 43.627471 43.824348 44.021376
44.218512 44.415709 44.612914 44.810069 45.007113 45.203978 45.400593 45.596879
45.792755 45.988132 46.182919 46.377015 46.570319 46.762721 46.954108 47.144361
47.333356 47.520964 47.707053 47.891482 48.074112 48.254792 48.433374 48.609701
48.783617 48.954958 49.123561 49.289257 49.451880 49.611255 49.767211 49.919575
50.068172 50.212827 50.353369 50.489622 50.621418 50.748585 50.870959 50.988376
51.100676 51.207703 51.309309 51.405347 51.495679 51.580172 51.658702 51.731151