# vtk DataFile Version 3.0
Steady-state temperature (Jacobi)
ASCII
DATASET STRUCTURED_POINTS
DIMENSIONS 181 181 1
ORIGIN 0.0 0.0 0.0
SPACING 0.05 0.05 1.0
POINT_DATA 32761
SCALARS Temperature float 1
LOOKUP_TABLE default
32.000000 32.000000 32.000000 32.000000 32.000000 32.000000 32.000000 32.000000
32.000000 32.000000 32.000000 32.000000 32.000000 32.000000 32.000000 32.000000
32.000000 32.000000 32.000000 32.000000 32.000000 32.000000 32.000000 32.000000
32.000000 32.000000 32.000000 32.000000 32.000000 32.000000 32.000000 32.000000
32.000000 32.000000 32.000000 32.000000 32.000000 32.000000 32.000000 32.000000
32.000000 32.000000 32.000000 32.000000 32.000000 32.000000 32.000000 32.000000
32.000000 32.000000 32.000000 32.000000 32.000000 32.000000 32.000000 32.000000
32.000000 32.000000 32.000000 32.000000 32.000000 32.000000 32.000000 32.000000
32.000000 32.000000 32.000000 32.000000 32.000000 32.000000 32.000000 32.000000
32.000000 32.000000 32.000000 32.000000 32.000000 32.000000 32.000000 32.000000
32.000000 32.000000 32.000000 32.000000 32.000000 32.000000 32.000000 32.000000
32.000000 32.000000 32.000000 32.000000 32.000000 32.000000 32.000000 32.000000
32.000000 32.000000 32.000000 32.000000 32.000000 32.000000 32.000000 32.000000
32.000000 32.000000 32.000000 32.000000 32.000000 32.000000 32.000000 32.000000
32.000000 32.000000 32.000000 32.000000 32.000000 32.000000 32.000000 32.000000
32.000000 32.000000 32.000000 32.000000 32.000000 32.000000 32.000000 32.000000
32.000000 32.000000 32.000000 32.000000 32.000000 32.000000 32.000000 32.000000
32.000000 32.000000 32.000000 32.000000 32.000000 32.000000 32.000000 32.000000
32.000000 32.000000 32.000000 32.000000 32.000000 32.000000 32.000000 32.000000
32.000000 32.000000 32.000000 32.000000 32.000000 32.000000 32.000000 32.000000
32.000000 32.000000 32.000000 32.000000 32.000000 32.000000 32.000000 32.000000
32.000000 32.000000 32.000000 32.000000 32.000000 32.000000 32.000000 32.000000
32.000000 32.000000 32.000000 32.000000 32.000000
32.377778 32.385401 32.393027 32.400662 32.408309 32.415971 32.423653 32.431359
32.439092 32.446855 32.454653 32.462489 32.470365 32.478286 32.486253 32.494271
32.502340 32.510465 32.518646 32.526886 32.535187 32.543551 32.551977 32.560469
32.569025 32.577647 32.586334 32.595087 32.603904 32.612786 32.621730 32.630736
32.639802 32.648924 32.658101 32.667331 32.676608 32.685930 32.695292 32.704691
32.714120 32.723576 32.733051 32.742542 32.752040 32.761539 32.771033 32.780513
32.789971 32.799401 32.808793 32.818138 32.827427 32.836651 32.845800 32.854865
32.863835 32.872700 32.881449 32.890072 32.898558 32.906897 32.915076 32.923085
32.930913 32.938550 32.945983 32.953203 32.960199 32.966959 32.973474 32.979733
32.985726 32.991444 32.996877 33.002017 33.006854 33.011381 33.015589 33.019473
33.023024 33.026236 33.029104 33.031624 33.033789 33.035597 33.037044 33.038128
33.038846 33.039198 33.039182 33.038799 33.038049 33.036934 33.035456 33.033618
33.031422 33.028874 33.025976 33.022735 33.019157 33.015247 33.011013 33.006462
33.001601 32.996439 32.990985 32.985247 32.979236 32.972960 32.966431 32.959657
32.952650 32.945421 32.937980 32.930338 32.922507 32.914496 32.906319 32.897984
32.889505 32.880891 32.872154 32.863303 32.854352 32.845307 32.836182 32.826985
32.817727 32.808415 32.799061 32.789673 32.780259 32.770827 32.761387 32.751944
32.742507 32.733081 32.723674 32.714292 32.704941 32.695624 32.686349 32.677119
32.667939 32.658811 32.649740 32.640729 32.631780 32.622896 32.614078 32.605328
32.596649 32.588038 32.579500 32.571031 32.562635 32.554308 32.546052 32.537864
32.529745 32.521691 32.513703 32.505777 32.497911 32.490103 32.482351 32.474651
32.467001 32.459396 32.451835 32.444314 32.436829 32.429375 32.421951 32.414551
32.407171 32.399808 32.392458 32.385116 32.377778
32.755556 32.770804 32.786061 32.801333 32.816630 32.831958 32.847325 32.862740
32.878209 32.893739 32.909338 32.925013 32.940769 32.956614 32.972553 32.988591
33.004735 33.020988 33.037355 33.053840 33.070448 33.087179 33.104038 33.121025
33.138143 33.155392 33.172773 33.190284 33.207926 33.225695 33.243592 33.261610
33.279749 33.298001 33.316364 33.334830 33.353393 33.372045 33.390779 33.409585
33.428454 33.447374 33.466337 33.485327 33.504334 33.523343 33.542342 33.561312
33.580242 33.599112 33.617908 33.636609 33.655201 33.673661 33.691973 33.710114
33.728067 33.745809 33.763321 33.780580 33.797565 33.814254 33.830626 33.846657
33.862327 33.877612 33.892492 33.906943 33.920946 33.934478 33.947520 33.960048
33.972046 33.983492 33.994368 34.004657 34.014341 34.023402 34.031828 34.039601
34.046710 34.053141 34.058884 34.063927 34.068262 34.071881 34.074779 34.076948
34.078386 34.079090 34.079058 34.078291 34.076791 34.074559 34.071600 34.067920
34.063524 34.058422 34.052622 34.046134 34.038970 34.031144 34.022667 34.013556
34.003825 33.993492 33.982574 33.971088 33.959055 33.946493 33.933422 33.919863
33.905838 33.891367 33.876472 33.861176 33.845500 33.829467 33.813098 33.796418
33.779445 33.762205 33.744717 33.727005 33.709087 33.690987 33.672723 33.654317
33.635787 33.617154 33.598433 33.579645 33.560805 33.541932 33.523038 33.504143
33.485256 33.466396 33.447572 33.428799 33.410085 33.391445 33.372884 33.354416
33.336046 33.317784 33.299633 33.281604 33.263698 33.245923 33.228281 33.210776
33.193408 33.176183 33.159098 33.142157 33.125357 33.108700 33.092182 33.075802
33.059558 33.043448 33.027465 33.011609 32.995874 32.980254 32.964745 32.949342
32.934038 32.918826 32.903701 32.888655 32.873681 32.858771 32.843919 32.829116
32.814354 32.799625 32.784921 32.770234 32.755556
33.133333 33.156214 33.179106 33.202023 33.224975 33.247975 33.271034 33.294164
33.317375 33.340679 33.364086 33.387607 33.411251 33.435028 33.458945 33.483013
33.507238 33.531629 33.556191 33.580931 33.605852 33.630962 33.656262 33.681757
33.707447 33.733336 33.759421 33.785704 33.812182 33.838854 33.865714 33.892761
33.919986 33.947385 33.974947 34.002667 34.030532 34.058533 34.086655 34.114888
34.143214 34.171621 34.200087 34.228600 34.257136 34.285678 34.314201 34.342687
34.371109 34.399445 34.427666 34.455750 34.483666 34.511389 34.538886 34.566132
34.593092 34.619739 34.646038 34.671959 34.697468 34.722535 34.747123 34.771203
34.794739 34.817699 34.840049 34.861758 34.882791 34.903119 34.922708 34.941530
34.959552 34.976748 34.993087 35.008544 35.023091 35.036706 35.049363 35.061043
35.071722 35.081385 35.090012 35.097589 35.104103 35.109541 35.113893 35.117153
35.119313 35.120371 35.120324 35.119172 35.116917 35.113564 35.109119 35.103589
35.096986 35.089320 35.080606 35.070858 35.060096 35.048337 35.035603 35.021915
35.007297 34.991773 34.975371 34.958117 34.940040 34.921169 34.901535 34.881167
34.860099 34.838362 34.815990 34.793013 34.769469 34.745386 34.720802 34.695747
34.670258 34.644364 34.618101 34.591499 34.564592 34.537409 34.509983 34.482342
34.454518 34.426535 34.398426 34.370214 34.341927 34.313587 34.285221 34.256849
34.228495 34.200177 34.171918 34.143732 34.115640 34.087654 34.059793 34.032068
34.004493 33.977077 33.949834 33.922770 33.895895 33.869213 33.842733 33.816457
33.790392 33.764537 33.738897 33.713470 33.688258 33.663257 33.638469 33.613886
33.589510 33.565331 33.541348 33.517553 33.493940 33.470500 33.447228 33.424114
33.401149 33.378322 33.355626 33.333049 33.310580 33.288208 33.265922 33.243710
33.221560 33.199459 33.177396 33.155359 33.133333
33.511111 33.541633 33.572170 33.602739 33.633357 33.664038 33.694798 33.725652
33.756617 33.787704 33.818930 33.850307 33.881849 33.913568 33.945477 33.977585
34.009906 34.042445 34.075216 34.108222 34.141475 34.174976 34.208735 34.242751
34.277032 34.311574 34.346384 34.381455 34.416790 34.452382 34.488230 34.524323
34.560659 34.597224 34.634013 34.671009 34.708203 34.745576 34.783116 34.820801
34.858615 34.896534 34.934538 34.972601 35.010700 35.048804 35.086889 35.124920
35.162871 35.200705 35.238391 35.275891 35.313171 35.350191 35.386915 35.423299
35.459308 35.494895 35.530022 35.564643 35.598717 35.632198 35.665045 35.697209
35.728651 35.759321 35.789181 35.818181 35.846283 35.873441 35.899614 35.924760
35.948842 35.971816 35.993649 36.014301 36.033741 36.051933 36.068847 36.084453
36.098725 36.111636 36.123166 36.133291 36.141996 36.149263 36.155080 36.159436
36.162324 36.163737 36.163674 36.162135 36.159122 36.154641 36.148700 36.141311
36.132487 36.122243 36.110598 36.097574 36.083192 36.067479 36.050463 36.032173
36.012639 35.991898 35.969981 35.946928 35.922774 35.897562 35.871329 35.844118
35.815971 35.786932 35.757043 35.726351 35.694897 35.662729 35.629888 35.596424
35.562375 35.527791 35.492712 35.457184 35.421247 35.384946 35.348317 35.311407
35.274248 35.236885 35.199348 35.161679 35.123907 35.086071 35.048196 35.010318
34.972462 34.934659 34.896931 34.859307 34.821804 34.784450 34.747258 34.710253
34.673445 34.636855 34.600492 34.564373 34.528503 34.492897 34.457556 34.422494
34.387708 34.353209 34.318993 34.285065 34.251422 34.218065 34.184988 34.152191
34.119665 34.087408 34.055409 34.023663 33.992159 33.960890 33.929842 33.899006
33.868369 33.837919 33.807641 33.777523 33.747550 33.717706 33.687977 33.658347
33.628800 33.599319 33.569888 33.540491 33.511111
33.888889 33.927063 33.965258 34.003492 34.041787 34.080162 34.118635 34.157228
34.195957 34.234842 34.273899 34.313147 34.352601 34.392279 34.432192 34.472359
34.512788 34.553496 34.594491 34.635785 34.677384 34.719299 34.761533 34.804095
34.846985 34.890208 34.933762 34.977649 35.021864 35.066405 35.111263 35.156436
35.201908 35.247675 35.293717 35.340025 35.386578 35.433362 35.480351 35.527529
35.574865 35.622339 35.669917 35.717574 35.765274 35.812988 35.860673 35.908300
35.955822 36.003205 36.050399 36.097367 36.144057 36.190427 36.236424 36.282002
36.327106 36.371689 36.415693 36.459068 36.501756 36.543707 36.584859 36.625163
36.664558 36.702994 36.740409 36.776754 36.811969 36.846006 36.878807 36.910325
36.940505 36.969303 36.996667 37.022555 37.046921 37.069726 37.090927 37.110491
37.128381 37.144568 37.159021 37.171716 37.182627 37.191738 37.199031 37.204492
37.208112 37.209885 37.209806 37.207876 37.204100 37.198482 37.191036 37.181772
37.170710 37.157868 37.143271 37.126943 37.108915 37.089218 37.067889 37.044961
37.020478 36.994479 36.967010 36.938114 36.907843 36.876243 36.843367 36.809264
36.773992 36.737600 36.700148 36.661686 36.622275 36.581966 36.540821 36.498890
36.456235 36.412906 36.368962 36.324453 36.279438 36.233964 36.188087 36.141853
36.095316 36.048518 36.001511 35.954334 35.907036 35.859653 35.812230 35.764799
35.717403 35.670070 35.622838 35.575731 35.528785 35.482020 35.435467 35.389142
35.343073 35.297272 35.251763 35.206554 35.161665 35.117101 35.072877 35.028997
34.985470 34.942298 34.899486 34.857032 34.814939 34.773202 34.731820 34.690785
34.650095 34.609738 34.569708 34.529993 34.490585 34.451467 34.412630 34.374057
34.335735 34.297646 34.259775 34.222103 34.184613 34.147285 34.110102 34.073041
34.036086 33.999213 33.962403 33.925636 33.888889
34.266667 34.312509 34.358375 34.404290 34.450277 34.496360 34.542564 34.588909
34.635420 34.682118 34.729025 34.776160 34.823546 34.871198 34.919138 34.967380
35.015942 35.064836 35.114079 35.163680 35.213652 35.264002 35.314741 35.365871
35.417402 35.469329 35.521661 35.574391 35.627520 35.681040 35.734948 35.789230
35.843880 35.898880 35.954220 36.009876 36.065835 36.122067 36.178556 36.235266
36.292177 36.349250 36.406457 36.463755 36.521114 36.578485 36.635833 36.693105
36.750262 36.807246 36.864014 36.920505 36.976671 37.032449 37.087786 37.142617
37.196886 37.250524 37.303474 37.355664 37.407036 37.457516 37.507044 37.555548
37.602965 37.649224 37.694262 37.738008 37.780401 37.821372 37.860862 37.898804
37.935142 37.969811 38.002760 38.033929 38.063269 38.090726 38.116258 38.139815
38.161360 38.180851 38.198257 38.213544 38.226686 38.237658 38.246441 38.253018
38.257378 38.259513 38.259418 38.257095 38.252547 38.245783 38.236814 38.225660
38.212337 38.196874 38.179295 38.159634 38.137925 38.114208 38.088523 38.060918
38.031438 38.000135 37.967061 37.932274 37.895828 37.857787 37.818207 37.777157
37.734695 37.690893 37.645810 37.599520 37.552084 37.503575 37.454056 37.403599
37.352267 37.300132 37.247254 37.193705 37.139543 37.084837 37.029643 36.974029
36.918046 36.861759 36.805216 36.748479 36.691592 36.634612 36.577579 36.520548
36.463553 36.406644 36.349852 36.293221 36.236778 36.180563 36.124597 36.068916
36.013538 35.958491 35.903790 35.849460 35.795509 35.741958 35.688812 35.636086
35.583782 35.531911 35.480470 35.429465 35.378892 35.328752 35.279036 35.229744
35.180862 35.132386 35.084301 35.036599 34.989263 34.942281 34.895634 34.849309
34.803282 34.757539 34.712056 34.666815 34.621792 34.576965 34.532311 34.487807
34.443428 34.399149 34.354946 34.310794 34.266667
34.644444 34.697972 34.751528 34.805141 34.858839 34.912650 34.966600 35.020719
35.075030 35.129562 35.184337 35.239382 35.294718 35.350370 35.406356 35.462699
35.519414 35.576524 35.634038 35.691976 35.750346 35.809164 35.868434 35.928168
35.988366 36.049038 36.110177 36.171791 36.233868 36.296410 36.359403 36.422842
36.486708 36.550994 36.615672 36.680731 36.746139 36.811879 36.877913 36.944219
37.010754 37.077490 37.144379 37.211387 37.278461 37.345562 37.412631 37.479623
37.546476 37.613139 37.679545 37.745639 37.811349 37.876616 37.941363 38.005529
38.069034 38.131811 38.193779 38.254868 38.314996 38.374090 38.432067 38.488853
38.544364 38.598527 38.651258 38.702484 38.752123 38.800105 38.846349 38.890786
38.933342 38.973950 39.012540 39.049051 39.083417 39.115582 39.145489 39.173087
39.198325 39.221161 39.241552 39.259462 39.274859 39.287714 39.298005 39.305711
39.310820 39.313322 39.313212 39.310490 39.305162 39.297237 39.286731 39.273662
39.258056 39.239939 39.219346 39.196313 39.170883 39.143099 39.113014 39.080676
39.046147 39.009480 38.970744 38.929999 38.887317 38.842763 38.796415 38.748341
38.698623 38.647330 38.594548 38.540347 38.484814 38.428022 38.370056 38.310990
38.250908 38.189883 38.127999 38.065326 38.001946 37.937926 37.873346 37.808270
37.742774 37.676918 37.610775 37.544400 37.477862 37.411210 37.344509 37.277805
37.211156 37.144602 37.078198 37.011977 36.945988 36.880260 36.814836 36.749740
36.685009 36.620661 36.556729 36.493224 36.430175 36.367588 36.305485 36.243869
36.182756 36.122144 36.062044 36.002450 35.943369 35.884790 35.826716 35.769132
35.712035 35.655410 35.599248 35.543531 35.488247 35.433374 35.378898 35.324795
35.271046 35.217626 35.164514 35.111683 35.059110 35.006765 34.954624 34.902657
34.850838 34.799136 34.747523 34.695969 34.644444
35.022222 35.083456 35.144723 35.206054 35.267484 35.329042 35.390763 35.452674
35.514810 35.577196 35.639866 35.702842 35.766156 35.829830 35.893892 35.958360
36.023261 36.088609 36.154430 36.220732 36.287537 36.354851 36.422692 36.491061
36.559971 36.629419 36.699414 36.769948 36.841023 36.912627 36.984759 37.057398
37.130538 37.204154 37.278233 37.352743 37.427667 37.502966 37.578617 37.654574
37.730808 37.807268 37.883917 37.960698 38.037570 38.114467 38.191342 38.268125
38.344763 38.421179 38.497315 38.573089 38.648436 38.723272 38.797526 38.871109
38.943947 39.015947 39.087032 39.157105 39.226087 39.293881 39.360403 39.425557
39.489258 39.551409 39.611927 39.670715 39.727691 39.782760 39.835844 39.886852
39.935707 39.982324 40.026630 40.068546 40.108006 40.144936 40.179278 40.210967
40.239950 40.266172 40.289590 40.310157 40.327840 40.342604 40.354422 40.363274
40.369142 40.372015 40.371889 40.368765 40.362646 40.353546 40.341481 40.326474
40.308551 40.287748 40.264100 40.237652 40.208450 40.176549 40.142003 40.104876
40.065229 40.023136 39.978662 39.931889 39.882889 39.831750 39.778546 39.723372
39.666305 39.607442 39.546865 39.484671 39.420945 39.355785 39.289274 39.221513
39.152583 39.082584 39.011595 38.939714 38.867018 38.793602 38.719540 38.644923
38.569820 38.494318 38.418483 38.342396 38.266117 38.189723 38.113269 38.036825
37.960440 37.884178 37.808082 37.732212 37.656602 37.581306 37.506353 37.431790
37.357640 37.283943 37.210716 37.137994 37.065787 36.994123 36.923009 36.852464
36.782490 36.713102 36.644296 36.576081 36.508447 36.441400 36.374926 36.309023
36.243674 36.178873 36.114600 36.050843 35.987579 35.924793 35.862458 35.800556
35.739058 35.677941 35.617175 35.556734 35.496586 35.436704 35.377054 35.317606
35.258325 35.199181 35.140138 35.081163 35.022222
35.400000 35.468963 35.537963 35.607037 35.676222 35.745553 35.815066 35.884798
35.954781 36.025050 36.095637 36.166575 36.237892 36.309620 36.381783 36.454412
36.527525 36.601152 36.675307 36.750014 36.825285 36.901141 36.977586 37.054638
37.132296 37.210573 37.289462 37.368971 37.449087 37.529813 37.611130 37.693033
37.775497 37.858511 37.942045 38.026080 38.110577 38.195514 38.280843 38.366534
38.452533 38.538803 38.625283 38.711929 38.798672 38.885462 38.972222 39.058897
39.145402 39.231675 39.317627 39.403187 39.488262 39.572776 39.656629 39.739741
39.822007 39.903342 39.983640 40.062811 40.140745 40.217351 40.292517 40.366149
40.438137 40.508386 40.576785 40.643241 40.707645 40.769906 40.829918 40.887592
40.942829 40.995544 41.045643 41.093048 41.137671 41.179440 41.218279 41.254123
41.286903 41.316566 41.343054 41.366321 41.386323 41.403025 41.416395 41.426409
41.433048 41.436300 41.436158 41.432624 41.425704 41.415410 41.401763 41.384787
41.364516 41.340983 41.314236 41.284320 41.251294 41.215212 41.176143 41.134153
41.089319 41.041715 40.991428 40.938538 40.883138 40.825315 40.765169 40.702791
40.638285 40.571744 40.503278 40.432982 40.360966 40.287326 40.212174 40.135604
40.057729 39.978642 39.898452 39.817250 39.735144 39.652221 39.568584 39.484315
39.399516 39.314261 39.228648 39.142745 39.056644 38.970408 38.884121 38.797842
38.711645 38.625584 38.539727 38.454120 38.368823 38.283876 38.199333 38.115224
38.031598 37.948478 37.865905 37.783895 37.702482 37.621676 37.541505 37.461971
37.383095 37.304875 37.227324 37.150435 37.074215 36.998651 36.923744 36.849477
36.775846 36.702829 36.630416 36.558582 36.487312 36.416577 36.346359 36.276626
36.207354 36.138510 36.070067 36.001989 35.934245 35.866800 35.799619 35.732664
35.665902 35.599291 35.532797 35.466379 35.400000
35.777778 35.854496 35.931256 36.008098 36.085064 36.162194 36.239528 36.317106
36.394966 36.473145 36.551682 36.630608 36.709963 36.789773 36.870075 36.950894
37.032261 37.114196 37.196730 37.279877 37.363662 37.448094 37.533195 37.618969
37.705431 37.792578 37.880422 37.968952 38.058174 38.148071 38.238642 38.329863
38.421725 38.514197 38.607264 38.700887 38.795042 38.889684 38.984781 39.080277
39.176137 39.272295 39.368706 39.465298 39.562019 39.658787 39.755543 39.852200
39.948688 40.044912 40.140799 40.236245 40.331170 40.425465 40.519041 40.611787
40.703609 40.794388 40.884027 40.972404 41.059419 41.144947 41.228884 41.311105
41.391505 41.469960 41.546363 41.620593 41.692544 41.762096 41.829149 41.893587
41.955312 42.014216 42.070206 42.123182 42.173057 42.219740 42.263155 42.303218
42.339864 42.373021 42.402633 42.428644 42.451007 42.469680 42.484629 42.495825
42.503249 42.506885 42.506728 42.502778 42.495042 42.483535 42.468279 42.449303
42.426640 42.400335 42.370435 42.336996 42.300078 42.259750 42.216080 42.169152
42.119043 42.065846 42.009647 41.950548 41.888643 41.824040 41.756839 41.687155
41.615091 41.540768 41.464290 41.385783 41.305351 41.223122 41.139201 41.053713
40.966765 40.878480 40.788961 40.698331 40.606688 40.514151 40.420814 40.326792
40.232173 40.137067 40.041556 39.945744 39.849705 39.753536 39.657306 39.561105
39.464992 39.369050 39.273331 39.177910 39.082832 38.988162 38.893938 38.800217
38.707030 38.614425 38.522424 38.431070 38.340376 38.250376 38.161077 38.072506
37.984663 37.897566 37.811210 37.725606 37.640742 37.556624 37.473232 37.390567
37.308605 37.227339 37.146742 37.066801 36.987484 36.908772 36.830633 36.753042
36.675962 36.599366 36.523213 36.447473 36.372104 36.297071 36.222331 36.147847
36.073575 35.999476 35.925504 35.851620 35.777778
36.155556 36.240057 36.324605 36.409244 36.494020 36.578979 36.664163 36.749618
36.835384 36.921507 37.008022 37.094975 37.182397 37.270330 37.358802 37.447854
37.537508 37.627799 37.718747 37.810383 37.902720 37.995785 38.089583 38.184138
38.279448 38.375530 38.472376 38.569997 38.668377 38.767520 38.867402 38.968020
39.069342 39.171357 39.274024 39.377325 39.481211 39.585654 39.690597 39.796002
39.901804 40.007959 40.114389 40.221042 40.327833 40.434701 40.541552 40.648315
40.754889 40.861196 40.967126 41.072592 41.177479 41.281692 41.385109 41.487630
41.589126 41.689491 41.788593 41.886320 41.982538 42.077131 42.169962 42.260914
42.349848 42.436648 42.521175 42.603313 42.682927 42.759902 42.834107 42.905431
42.973749 43.038956 43.100935 43.159587 43.214803 43.266494 43.314562 43.358927
43.399505 43.436225 43.469018 43.497826 43.522593 43.543275 43.559831 43.572233
43.580456 43.584485 43.584313 43.579939 43.571373 43.558630 43.541735 43.520719
43.495624 43.466492 43.433383 43.396354 43.355476 43.310820 43.262472 43.210512
43.155039 43.096144 43.033936 42.968514 42.899997 42.828492 42.754124 42.677005
42.597268 42.515027 42.430418 42.343561 42.254592 42.163632 42.070818 41.976269
41.880125 41.782499 41.683530 41.583328 41.482029 41.379738 41.276585 41.172672
41.068122 40.963030 40.857514 40.751660 40.645580 40.539354 40.433083 40.326839
40.220716 40.114778 40.009110 39.903766 39.798824 39.694328 39.590347 39.486917
39.384097 39.281915 39.180422 39.079637 38.979601 38.880326 38.781845 38.684161
38.587299 38.491256 38.396048 38.301665 38.208114 38.115381 38.023466 37.932347
37.842018 37.752452 37.663636 37.575540 37.488144 37.401413 37.315323 37.229834
37.144918 37.060532 36.976643 36.893206 36.810185 36.727532 36.645208 36.563164
36.481357 36.399740 36.318266 36.236887 36.155556
36.533333 36.625649 36.718016 36.810483 36.903101 36.995918 37.088986 37.182349
37.276058 37.370155 37.464689 37.559698 37.655230 37.751318 37.848007 37.945326
38.043316 38.142001 38.241417 38.341582 38.442528 38.544268 38.646826 38.750208
38.854434 38.959501 39.065424 39.172190 39.279806 39.388254 39.497532 39.607612
39.718484 39.830112 39.942477 40.055532 40.169252 40.283578 40.398475 40.513877
40.629739 40.745983 40.862556 40.979369 41.096361 41.213433 41.330513 41.447495
41.564296 41.680802 41.796920 41.912529 42.027528 42.141787 42.255198 42.367624
42.478950 42.589035 42.697758 42.804971 42.910550 43.014344 43.116227 43.216045
43.313670 43.408948 43.501752 43.591929 43.679353 43.763876 43.845373 43.923704
43.998748 44.070371 44.138460 44.202891 44.263559 44.320350 44.373171 44.421919
44.466512 44.506864 44.542906 44.574565 44.601787 44.624518 44.642718 44.656350
44.665390 44.669820 44.669632 44.664826 44.655412 44.641409 44.622841 44.599746
44.572165 44.540154 44.503767 44.463079 44.418158 44.369093 44.315967 44.258883
44.197935 44.133239 44.064900 43.993043 43.917783 43.839255 43.757580 43.672901
43.585342 43.495052 43.402161 43.306819 43.209158 43.109330 43.007467 42.903721
42.798221 42.691120 42.582542 42.472636 42.361523 42.249348 42.136226 42.022295
41.907663 41.792463 41.676796 41.560785 41.444523 41.328127 41.211680 41.095288
40.979027 40.862993 40.747253 40.631893 40.516970 40.402561 40.288712 40.175492
40.062936 39.951103 39.840019 39.729734 39.620265 39.511652 39.403903 39.297048
39.191089 39.086046 38.981911 38.878699 38.776394 38.675001 38.574499 38.474884
38.376130 38.278226 38.181139 38.084852 37.989328 37.894544 37.800457 37.707039
37.614244 37.522038 37.430374 37.339212 37.248502 37.158202 37.068259 36.978628
36.889255 36.800091 36.711084 36.622183 36.533333
36.911111 37.011274 37.111492 37.211821 37.312313 37.413025 37.514008 37.615318
37.717002 37.819114 37.921699 38.024810 38.128486 38.232777 38.337718 38.443357
38.549721 38.656854 38.764779 38.873534 38.983134 39.093613 39.204980 39.317260
39.430454 39.544582 39.659637 39.775631 39.892546 40.010387 40.129128 40.248765
40.369261 40.490603 40.612745 40.735663 40.859302 40.983627 41.108572 41.234094
41.360114 41.486578 41.613398 41.740510 41.867814 41.995235 42.122663 42.250014
42.377167 42.504028 42.630467 42.756380 42.881627 43.006098 43.129644 43.252145
43.373447 43.493424 43.611915 43.728787 43.843877 43.957047 44.068131 44.176988
44.283451 44.387378 44.488604 44.586986 44.682361 44.774591 44.863517 44.949004
45.030902 45.109081 45.183401 45.253740 45.319968 45.381975 45.439643 45.492875
45.541567 45.585635 45.624992 45.659570 45.689300 45.714128 45.734006 45.748897
45.758771 45.763611 45.763408 45.758161 45.747882 45.732589 45.712313 45.687091
45.656973 45.622014 45.582284 45.537852 45.488806 45.435231 45.377233 45.314908
45.248377 45.177751 45.103161 45.024729 44.942598 44.856897 44.767779 44.675380
44.579859 44.481355 44.380035 44.276040 44.169537 44.060670 43.949607 43.836490
43.721486 43.604735 43.486401 43.366618 43.245548 43.123319 43.000086 42.875970
42.751121 42.625651 42.499702 42.373377 42.246809 42.120092 41.993349 41.866666
41.740154 41.613888 41.487969 41.362463 41.237461 41.113016 40.989207 40.866080
40.743703 40.622109 40.501357 40.381470 40.262496 40.144448 40.027365 39.911251
39.796133 39.682007 39.568891 39.456774 39.345663 39.235540 39.126403 39.018228
38.911005 38.804703 38.699304 38.594772 38.491083 38.388193 38.286075 38.184681
38.083974 37.983906 37.884435 37.785507 37.687079 37.589093 37.491502 37.394247
37.297278 37.200535 37.103965 37.007509 36.911111
37.288889 37.396934 37.505039 37.613263 37.721668 37.830309 37.939247 38.048537
38.158238 38.268400 38.379082 38.490330 38.602199 38.714730 38.827977 38.941974
39.056770 39.172394 39.288890 39.406279 39.524601 39.643870 39.764116 39.885348
40.007589 40.130837 40.255110 40.380394 40.506700 40.634004 40.762307 40.891576
41.021802 41.152940 41.284972 41.417843 41.551522 41.685943 41.821064 41.956809
42.093124 42.229919 42.367132 42.504660 42.642428 42.780324 42.918260 43.056113
43.193785 43.331140 43.468072 43.604434 43.740109 43.874942 44.008806 44.141538
44.273003 44.403031 44.531479 44.658173 44.782964 44.905673 45.026148 45.144207
45.259696 45.372433 45.482263 45.589007 45.692511 45.792600 45.889124 45.981913
46.070824 46.155696 46.236393 46.312765 46.384688 46.452023 46.514658 46.572472
46.625363 46.673230 46.715986 46.753548 46.785848 46.812822 46.834420 46.850599
46.861330 46.866591 46.866372 46.860674 46.849508 46.832896 46.810870 46.783473
46.750755 46.712784 46.669626 46.621368 46.568095 46.509913 46.446923 46.379246
46.306998 46.230317 46.149329 46.064185 45.975023 45.882005 45.785274 45.685003
45.581342 45.474468 45.364535 45.251725 45.136194 45.018125 44.897673 44.775021
44.650323 44.523760 44.395481 44.265662 44.134448 44.002009 43.868482 43.734031
43.598786 43.462901 43.326496 43.189718 43.052677 42.915508 42.778310 42.641209
42.504293 42.367677 42.231436 42.095673 41.960454 41.825869 41.691972 41.558843
41.426523 41.295080 41.164545 41.034975 40.906389 40.778833 40.652317 40.526874
40.402505 40.279234 40.157052 40.035971 39.915976 39.797069 39.679227 39.562442
39.446684 39.331938 39.218166 39.105347 38.993436 38.882404 38.772202 38.662795
38.554129 38.446163 38.338840 38.232114 38.125925 38.020222 37.914944 37.810035
37.705433 37.601080 37.496912 37.392869 37.288889
37.666667 37.782631 37.898660 38.014818 38.131170 38.247781 38.364710 38.482023
38.599777 38.718036 38.836852 38.956286 39.076387 39.197213 39.318806 39.441220
39.564491 39.688669 39.813783 39.939876 40.066969 40.195101 40.324284 40.454548
40.585895 40.718351 40.851906 40.986576 41.122342 41.259211 41.397154 41.536165
41.676205 41.817258 41.959272 42.102220 42.246039 42.390689 42.536094 42.682205
42.828930 42.976208 43.123937 43.272041 43.420405 43.568943 43.717527 43.866057
44.014395 44.162428 44.310007 44.457009 44.603271 44.748663 44.893011 45.036174
45.177973 45.318255 45.456836 45.593557 45.728226 45.860679 45.990723 46.118188
46.242879 46.364628 46.483237 46.598539 46.710342 46.818478 46.922762 47.023032
47.119110 47.210842 47.298059 47.380619 47.458366 47.531168 47.598885 47.661400
47.718591 47.770356 47.816594 47.857220 47.892153 47.921329 47.944690 47.962192
47.973801 47.979493 47.979259 47.973099 47.961025 47.943060 47.919240 47.889611
47.854231 47.813167 47.766500 47.714316 47.656718 47.593808 47.525710 47.452543
47.374449 47.291558 47.204030 47.112007 47.015661 46.915145 46.810641 46.702309
46.590339 46.474898 46.356179 46.234353 46.109617 45.982140 45.852122 45.719730
45.585161 45.448581 45.310181 45.170123 45.028593 44.885744 44.741757 44.596776
44.450973 44.304483 44.157470 44.010055 43.862394 43.714596 43.566804 43.419118
43.271667 43.124540 42.977853 42.831682 42.686132 42.541265 42.397173 42.253906
42.111545 41.970127 41.829719 41.690347 41.552066 41.414891 41.278865 41.143991
41.010302 40.877791 40.746477 40.616347 40.487408 40.359638 40.233035 40.107567
39.983224 39.859967 39.737776 39.616607 39.496431 39.377199 39.258874 39.141401
39.024738 38.908826 38.793616 38.679046 38.565062 38.451600 38.338600 38.225997
38.113729 38.001728 37.889929 37.778264 37.666667
38.044444 38.168366 38.292358 38.416489 38.540830 38.665447 38.790412 38.915786
39.041641 39.168034 39.295034 39.422696 39.551083 39.680245 39.810242 39.941118
40.072928 40.205708 40.339508 40.474357 40.610297 40.747349 40.885548 41.024905
41.165448 41.307177 41.450111 41.594238 41.739570 41.886083 42.033777 42.182617
42.332591 42.483652 42.635778 42.788906 42.943003 43.097994 43.253831 43.410426
43.567719 43.725607 43.884018 44.042835 44.201971 44.361297 44.520713 44.680075
44.839270 44.998144 45.156570 45.314381 45.471438 45.627564 45.782610 45.936387
46.088736 46.239461 46.388395 46.535333 46.680102 46.822493 46.962326 47.099391
47.233504 47.364454 47.492057 47.616104 47.736413 47.852778 47.965021 48.072945
48.176377 48.275131 48.369043 48.457939 48.541668 48.620071 48.693010 48.760345