# vtk DataFile Version 3.0
Steady-state temperature (Jacobi)
ASCII
DATASET STRUCTURED_POINTS
DIMENSIONS 181 181 1
ORIGIN 0.0 0.0 0.0
SPACING 0.05 0.05 1.0
POINT_DATA 32761
SCALARS Temperature float 1
LOOKUP_TABLE default
32.000000 32.000000 32.000000 32.000000 32.000000 32.000000 32.000000 32.000000
32.000000 32.000000 32.000000 32.000000 32.000000 32.000000 32.000000 32.000000
32.000000 32.000000 32.000000 32.000000 32.000000 32.000000 32.000000 32.000000
32.000000 32.000000 32.000000 32.000000 32.000000 32.000000 32.000000 32.000000
32.000000 32.000000 32.000000 32.000000 32.000000 32.000000 32.000000 32.000000
32.000000 32.000000 32.000000 32.000000 32.000000 32.000000 32.000000 32.000000
32.000000 32.000000 32.000000 32.000000 32.000000 32.000000 32.000000 32.000000
32.000000 32.000000 32.000000 32.000000 32.000000 32.000000 32.000000 32.000000
32.000000 32.000000 32.000000 32.000000 32.000000 32.000000 32.000000 32.000000
32.000000 32.000000 32.000000 32.000000 32.000000 32.000000 32.000000 32.000000
32.000000 32.000000 32.000000 32.000000 32.000000 32.000000 32.000000 32.000000
32.000000 32.000000 32.000000 32.000000 32.000000 32.000000 32.000000 32.000000
32.000000 32.000000 32.000000 32.000000 32.000000 32.000000 32.000000 32.000000
32.000000 32.000000 32.000000 32.000000 32.000000 32.000000 32.000000 32.000000
32.000000 32.000000 32.000000 32.000000 32.000000 32.000000 32.000000 32.000000
32.000000 32.000000 32.000000 32.000000 32.000000 32.000000 32.000000 32.000000
32.000000 32.000000 32.000000 32.000000 32.000000 32.000000 32.000000 32.000000
32.000000 32.000000 32.000000 32.000000 32.000000 32.000000 32.000000 32.000000
32.000000 32.000000 32.000000 32.000000 32.000000 32.000000 32.000000 32.000000
32.000000 32.000000 32.000000 32.000000 32.000000 32.000000 32.000000 32.000000
32.000000 32.000000 32.000000 32.000000 32.000000 32.000000 32.000000 32.000000
32.000000 32.000000 32.000000 32.000000 32.000000 32.000000 32.000000 32.000000
32.000000 32.000000 32.000000 32.000000 32.000000
32.377778 32.386666 32.395557 32.404455 32.413363 32.422283 32.431218 32.440173
32.449150 32.458151 32.467179 32.476238 32.485329 32.494455 32.503618 32.512821
32.522065 32.531353 32.540684 32.550062 32.559487 32.568960 32.578481 32.588052
32.597671 32.607341 32.617059 32.626825 32.636638 32.646498 32.656402 32.666349
32.676336 32.686361 32.696421 32.706513 32.716632 32.726777 32.736942 32.747122
32.757312 32.767508 32.777704 32.787893 32.798069 32.808226 32.818356 32.828452
32.838507 32.848512 32.858459 32.868339 32.878144 32.887865 32.897491 32.907014
32.916423 32.925709 32.934861 32.943869 32.952723 32.961412 32.969926 32.978253
32.986384 32.994307 33.002012 33.009489 33.016728 33.023717 33.030447 33.036908
33.043091 33.048986 33.054585 33.059878 33.064858 33.069516 33.073845 33.077839
33.081490 33.084793 33.087742 33.090333 33.092560 33.094421 33.095912 33.097031
33.097776 33.098145 33.098139 33.097756 33.096998 33.095866 33.094362 33.092489
33.090250 33.087648 33.084688 33.081375 33.077715 33.073713 33.069376 33.064712
33.059727 33.054430 33.048829 33.042933 33.036751 33.030291 33.023565 33.016581
33.009351 33.001883 32.994189 32.986279 32.978165 32.969855 32.961362 32.952696
32.943868 32.934887 32.925766 32.916514 32.907142 32.897658 32.888075 32.878401
32.868645 32.858817 32.848927 32.838981 32.828990 32.818961 32.808901 32.798819
32.788722 32.778615 32.768507 32.758401 32.748306 32.738225 32.728165 32.718129
32.708122 32.698147 32.688209 32.678311 32.668456 32.658645 32.648882 32.639169
32.629506 32.619896 32.610339 32.600835 32.591386 32.581992 32.572651 32.563364
32.554131 32.544949 32.535819 32.526738 32.517705 32.508718 32.499776 32.490876
32.482015 32.473192 32.464404 32.455647 32.446920 32.438219 32.429541 32.420883
32.412242 32.403614 32.394996 32.386385 32.377778
32.755556 32.773334 32.791120 32.808918 32.826735 32.844578 32.862452 32.880364
32.898320 32.916325 32.934385 32.952505 32.970690 32.988945 33.007276 33.025684
33.044176 33.062754 33.081421 33.100181 33.119034 33.137984 33.157032 33.176177
33.195422 33.214766 33.234207 33.253745 33.273378 33.293103 33.312917 33.332817
33.352798 33.372854 33.392982 33.413172 33.433421 33.453717 33.474055 33.494423
33.514813 33.535214 33.555614 33.576002 33.596364 33.616687 33.636958 33.657161
33.677281 33.697302 33.717207 33.736979 33.756601 33.776052 33.795317 33.814374
33.833205 33.851789 33.870106 33.888134 33.905855 33.923245 33.940284 33.956951
33.973224 33.989082 34.004505 34.019470 34.033958 34.047947 34.061418 34.074351
34.086727 34.098527 34.109734 34.120329 34.130297 34.139622 34.148288 34.156282
34.163591 34.170202 34.176106 34.181292 34.185751 34.189476 34.192461 34.194701
34.196192 34.196931 34.196918 34.196152 34.194635 34.192369 34.189358 34.185608
34.181125 34.175917 34.169992 34.163361 34.156033 34.148023 34.139342 34.130006
34.120028 34.109425 34.098213 34.086411 34.074036 34.061107 34.047644 34.033665
34.019192 34.004246 33.988846 33.973015 33.956773 33.940143 33.923144 33.905800
33.888131 33.870159 33.851904 33.833388 33.814630 33.795653 33.776473 33.757114
33.737590 33.717924 33.698131 33.678230 33.658236 33.638168 33.618038 33.597865
33.577659 33.557437 33.537210 33.516992 33.496792 33.476622 33.456493 33.436413
33.416390 33.396435 33.376551 33.356748 33.337030 33.317403 33.297871 33.278439
33.259107 33.239882 33.220762 33.201750 33.182847 33.164054 33.145368 33.126790
33.108319 33.089952 33.071687 33.053522 33.035452 33.017476 32.999588 32.981785
32.964061 32.946412 32.928832 32.911317 32.893859 32.876455 32.859096 32.841778
32.824493 32.807235 32.789997 32.772773 32.755556
33.133333 33.160008 33.186692 33.213395 33.240127 33.266898 33.293716 33.320591
33.347531 33.374545 33.401642 33.428830 33.456115 33.483506 33.511009 33.538632
33.566378 33.594254 33.622264 33.650413 33.678704 33.707139 33.735721 33.764452
33.793331 33.822359 33.851534 33.880855 33.910318 33.939921 33.969657 33.999523
34.029511 34.059614 34.089822 34.120127 34.150518 34.180983 34.211509 34.242084
34.272690 34.303315 34.333937 34.364543 34.395110 34.425621 34.456052 34.486383
34.516589 34.546648 34.576533 34.606220 34.635680 34.664888 34.693814 34.722430
34.750706 34.778612 34.806117 34.833191 34.859801 34.885917 34.911506 34.936537
34.960976 34.984794 35.007956 35.030433 35.052193 35.073205 35.093438 35.112864
35.131453 35.149178 35.166011 35.181927 35.196900 35.210907 35.223925 35.235934
35.246913 35.256845 35.265714 35.273504 35.280203 35.285799 35.290283 35.293648
35.295888 35.296998 35.296978 35.295828 35.293548 35.290145 35.285622 35.279989
35.273255 35.265430 35.256530 35.246568 35.235561 35.223528 35.210488 35.196463
35.181475 35.165548 35.148707 35.130979 35.112392 35.092972 35.072750 35.051754
35.030017 35.007568 34.984440 34.960663 34.936271 34.911294 34.885767 34.859719
34.833186 34.806196 34.778784 34.750979 34.722814 34.694317 34.665520 34.636450
34.607138 34.577609 34.547893 34.518013 34.487997 34.457866 34.427648 34.397361
34.367030 34.336672 34.306310 34.275958 34.245638 34.215361 34.185147 34.155007
34.124955 34.095001 34.065160 34.035437 34.005844 33.976387 33.947074 33.917910
33.888900 33.860046 33.831354 33.802824 33.774458 33.746255 33.718216 33.690339
33.662622 33.635061 33.607655 33.580398 33.553286 33.526312 33.499472 33.472759
33.446166 33.419685 33.393309 33.367029 33.340837 33.314724 33.288680 33.262696
33.236763 33.210870 33.185007 33.159165 33.133333
33.511111 33.546688 33.582279 33.617895 33.653549 33.689255 33.725025 33.760870
33.796803 33.832835 33.868978 33.905241 33.941636 33.978172 34.014859 34.051703
34.088715 34.125900 34.163265 34.200815 34.238555 34.276489 34.314620 34.352949
34.391477 34.430204 34.469129 34.508249 34.547560 34.587057 34.626736 34.666586
34.706601 34.746770 34.787082 34.827522 34.868080 34.908737 34.949478 34.990282
35.031132 35.072005 35.112880 35.153731 35.194534 35.235260 35.275884 35.316373
35.356699 35.396827 35.436727 35.476361 35.515696 35.554693 35.593317 35.631526
35.669284 35.706547 35.743278 35.779433 35.814971 35.849848 35.884025 35.917454
35.950097 35.981908 36.012847 36.042870 36.071936 36.100003 36.127032 36.152982
36.177816 36.201494 36.223982 36.245245 36.265249 36.283962 36.301355 36.317399
36.332068 36.345338 36.357188 36.367596 36.376547 36.384024 36.390016 36.394512
36.397505 36.398989 36.398962 36.397425 36.394379 36.389831 36.383789 36.376262
36.367264 36.356810 36.344918 36.331608 36.316902 36.300826 36.283404 36.264666
36.244642 36.223365 36.200866 36.177184 36.152352 36.126411 36.099397 36.071352
36.042316 36.012331 35.981437 35.949680 35.917100 35.883743 35.849648 35.814863
35.779427 35.743385 35.706778 35.669649 35.632038 35.593988 35.555535 35.516723
35.477585 35.438162 35.398487 35.358597 35.318525 35.278304 35.237963 35.197536
35.157047 35.116527 35.075999 35.035490 34.995020 34.954614 34.914289 34.874066
34.833960 34.793989 34.754165 34.714504 34.675015 34.635710 34.596596 34.557684
34.518976 34.480481 34.442199 34.404136 34.366292 34.328667 34.291260 34.254071
34.217096 34.180331 34.143771 34.107412 34.071245 34.035266 33.999464 33.963833
33.928361 33.893041 33.857859 33.822807 33.787872 33.753042 33.718305 33.683649
33.649060 33.614525 33.580031 33.545564 33.511111
33.888889 33.933379 33.977885 34.022424 34.067011 34.111662 34.156393 34.201220
34.246156 34.291217 34.336416 34.381768 34.427284 34.472978 34.518860 34.564942
34.611232 34.657741 34.704475 34.751443 34.798648 34.846098 34.893794 34.941741
34.989937 35.038385 35.087079 35.136021 35.185202 35.234619 35.284262 35.334124
35.384191 35.434455 35.484897 35.535505 35.586258 35.637140 35.688126 35.739197
35.790323 35.841483 35.892645 35.943781 35.994856 36.045841 36.096696 36.147387
36.197873 36.248117 36.298073 36.347702 36.396955 36.445791 36.494157 36.542010
36.589295 36.635967 36.681971 36.727257 36.771770 36.815459 36.858269 36.900149
36.941041 36.980896 37.019656 37.057272 37.093689 37.128857 37.162724 37.195241
37.226358 37.256031 37.284212 37.310858 37.335926 37.359379 37.381176 37.401284
37.419669 37.436301 37.451152 37.464198 37.475417 37.484789 37.492299 37.497934
37.501685 37.503545 37.503512 37.501585 37.497768 37.492068 37.484494 37.475061
37.463783 37.450681 37.435776 37.419094 37.400664 37.380515 37.358682 37.335198
37.310105 37.283440 37.255247 37.225569 37.194454 37.161948 37.128100 37.092960
37.056580 37.019011 36.980307 36.940521 36.899707 36.857918 36.815210 36.771635
36.727250 36.682104 36.636256 36.589753 36.542651 36.494997 36.446845 36.398240
36.349233 36.299868 36.250192 36.200247 36.150077 36.099721 36.049220 35.998609
35.947927 35.897204 35.846477 35.795771 35.745121 35.694548 35.644081 35.593741
35.543553 35.493532 35.443701 35.394071 35.344662 35.295481 35.246545 35.197858
35.149432 35.101271 35.053381 35.005763 34.958423 34.911356 34.864566 34.818047
34.771798 34.725812 34.680085 34.634608 34.589375 34.544375 34.499600 34.455037
34.410676 34.366503 34.322507 34.278671 34.234983 34.191426 34.147987 34.104648
34.061394 34.018208 33.975073 33.931972 33.888889
34.266667 34.320082 34.373516 34.426989 34.480521 34.534131 34.587836 34.641656
34.695610 34.749713 34.803984 34.858438 34.913091 34.967957 35.023052 35.078386
35.133973 35.189823 35.245946 35.302349 35.359042 35.416028 35.473314 35.530899
35.588789 35.646980 35.705473 35.764261 35.823343 35.882706 35.942347 36.002250
36.062406 36.122796 36.183407 36.244217 36.305207 36.366350 36.427625 36.489001
36.550451 36.611940 36.673437 36.734903 36.796303 36.857592 36.918733 36.979676
37.040379 37.100789 37.160861 37.220538 37.279771 37.338499 37.396671 37.454223
37.511100 37.567238 37.622578 37.677053 37.730605 37.783166 37.834674 37.885061
37.934266 37.982221 38.028865 38.074130 38.117957 38.160280 38.201040 38.240176
38.277630 38.313345 38.347266 38.379340 38.409518 38.437749 38.463990 38.488196
38.510330 38.530353 38.548233 38.563939 38.577446 38.588730 38.597772 38.604557
38.609073 38.611313 38.611273 38.608953 38.604358 38.597495 38.588377 38.577019
38.563441 38.547667 38.529723 38.509641 38.487453 38.463197 38.436913 38.408645
38.378437 38.346341 38.312405 38.276684 38.239233 38.200110 38.159372 38.117082
38.073300 38.028091 37.981516 37.933642 37.884532 37.834253 37.782868 37.730445
37.677046 37.622739 37.567585 37.511650 37.454993 37.397679 37.339765 37.281313
37.222376 37.163016 37.103281 37.043228 36.982905 36.922364 36.861649 36.800808
36.739879 36.678910 36.617933 36.556990 36.496111 36.435333 36.374681 36.314188
36.253875 36.193771 36.133893 36.074264 36.014898 35.955813 35.897020 35.838533
35.780358 35.722506 35.664979 35.607785 35.550921 35.494393 35.438194 35.382326
35.326782 35.271557 35.216642 35.162032 35.107714 35.053679 34.999913 34.946405
34.893139 34.840101 34.787274 34.734642 34.682187 34.629893 34.577738 34.525705
34.473774 34.421925 34.370138 34.318392 34.266667
34.644444 34.706799 34.769176 34.831599 34.894090 34.956672 35.019367 35.082198
35.145183 35.208346 35.271704 35.335278 35.399085 35.463143 35.527468 35.592076
35.656980 35.722194 35.787726 35.853591 35.919793 35.986343 36.053242 36.120497
36.188106 36.256073 36.324393 36.393063 36.462076 36.531425 36.601097 36.671083
36.741363 36.811925 36.882744 36.953802 37.025071 37.096527 37.168137 37.239872
37.311694 37.383570 37.455455 37.527311 37.599090 37.670749 37.742232 37.813494
37.884474 37.955121 38.025372 38.095169 38.164445 38.233141 38.301185 38.368512
38.435050 38.500730 38.565476 38.629219 38.691881 38.753389 38.813665 38.872637
38.930224 38.986354 39.040949 39.093937 39.145239 39.194787 39.242505 39.288325
39.332176 39.373994 39.413712 39.451270 39.486607 39.519667 39.550396 39.578745
39.604666 39.628116 39.649057 39.667453 39.683272 39.696488 39.707079 39.715026
39.720316 39.722939 39.722893 39.720176 39.714794 39.706756 39.696076 39.682774
39.666872 39.648397 39.627383 39.603863 39.577878 39.549472 39.518693 39.485589
39.450218 39.412634 39.372899 39.331074 39.287226 39.241420 39.193729 39.144220
39.092970 39.040048 38.985533 38.929497 38.872020 38.813175 38.753043 38.691695
38.629212 38.565666 38.501137 38.435693 38.369413 38.302363 38.234620 38.166246
38.097315 38.027886 37.958029 37.887800 37.817263 37.746470 37.675483 37.604347
37.533119 37.461841 37.390564 37.319325 37.248170 37.177131 37.106249 37.035551
36.965073 36.894837 36.824874 36.755200 36.685841 36.616810 36.548128 36.479801
36.411847 36.344269 36.277077 36.210273 36.143862 36.077840 36.012210 35.946966
35.882104 35.817615 35.753493 35.689726 35.626304 35.563212 35.500438 35.437965
35.375778 35.313856 35.252184 35.190740 35.129505 35.068455 35.007572 34.946830
34.886209 34.825683 34.765230 34.704825 34.644444
35.022222 35.093532 35.164869 35.236258 35.307726 35.379298 35.451001 35.522858
35.594895 35.667135 35.739601 35.812314 35.885297 35.958567 36.032147 36.106050
36.180296 36.254896 36.329867 36.405218 36.480960 36.557100 36.633646 36.710599
36.787965 36.865740 36.943925 37.022513 37.101499 37.180871 37.260621 37.340730
37.421185 37.501962 37.583043 37.664398 37.746004 37.827824 37.909830 37.991979
38.074238 38.156559 38.238901 38.321210 38.403441 38.485533 38.567437 38.649086
38.730423 38.811379 38.891891 38.971883 39.051290 39.130030 39.208033 39.285216
39.361503 39.436807 39.511049 39.584142 39.656003 39.726542 39.795676 39.863314
39.929372 39.993759 40.056392 40.117181 40.176043 40.232892 40.287647 40.340224
40.390547 40.438536 40.484120 40.527224 40.567783 40.605728 40.641001 40.673540
40.703296 40.730215 40.754254 40.775372 40.793533 40.808705 40.820864 40.829988
40.836061 40.839074 40.839020 40.835901 40.829723 40.820495 40.808235 40.792964
40.774709 40.753501 40.729377 40.702379 40.672551 40.639945 40.604615 40.566621
40.526022 40.482888 40.437285 40.389288 40.338969 40.286409 40.231684 40.174881
40.116077 40.055364 39.992822 39.928544 39.862611 39.795118 39.726148 39.655792
39.584135 39.511268 39.437273 39.362240 39.286246 39.209382 39.131721 39.053349
38.974337 38.894767 38.814704 38.734226 38.653395 38.572283 38.490946 38.409450
38.327849 38.246201 38.164554 38.082961 38.001464 37.920111 37.838937 37.757984
37.677282 37.596868 37.516764 37.437003 37.357601 37.278584 37.199964 37.121762
37.043985 36.966647 36.889750 36.813305 36.737309 36.661767 36.586671 36.512024
36.437814 36.364037 36.290679 36.217733 36.145181 36.073013 36.001207 35.929750
35.858620 35.787797 35.717259 35.646986 35.576951 35.507131 35.437501 35.368035
35.298706 35.229488 35.160353 35.091274 35.022222
35.400000 35.480285 35.560599 35.640974 35.721437 35.802020 35.882749 35.963655
36.044763 36.126102 36.207697 36.289573 36.371753 36.454262 36.537119 36.620346
36.703958 36.787977 36.872413 36.957283 37.042594 37.128361 37.214585 37.301277
37.388433 37.476060 37.564149 37.652700 37.741702 37.831148 37.921019 38.011307
38.101984 38.193036 38.284431 38.376146 38.468144 38.560397 38.652859 38.745495
38.838256 38.931098 39.023965 39.116809 39.209564 39.302177 39.394577 39.486703
39.578479 39.669836 39.760693 39.850978 39.940601 40.029486 40.117539 40.204678
40.290806 40.375837 40.459670 40.542216 40.623371 40.703044 40.781132 40.857539
40.932162 41.004906 41.075669 41.144357 41.210868 41.275112 41.336989 41.396413
41.453288 41.507532 41.559056 41.607783 41.653632 41.696530 41.736407 41.773197
41.806838 41.837276 41.864456 41.888335 41.908870 41.926028 41.939776 41.950094
41.956962 41.960369 41.960309 41.956783 41.949796 41.939362 41.925499 41.908232
41.887590 41.863610 41.836334 41.805808 41.772085 41.735221 41.695280 41.652326
41.606433 41.557673 41.506127 41.451874 41.395003 41.335599 41.273756 41.209562
41.143118 41.074515 41.003855 40.931232 40.856751 40.780506 40.702603 40.623136
40.542211 40.459919 40.376364 40.291637 40.205840 40.119058 40.031391 39.942920
39.853741 39.763931 39.673579 39.582759 39.491554 39.400031 39.308269 39.216328
39.124280 39.032181 38.940096 38.848072 38.756169 38.664428 38.572902 38.481626
38.390645 38.299987 38.209693 38.119783 38.030291 37.941232 37.852633 37.764503
37.676863 37.589718 37.503080 37.416950 37.331335 37.246231 37.161640 37.077553
36.993967 36.910868 36.828249 36.746092 36.664387 36.583113 36.502254 36.421787
36.341692 36.261945 36.182522 36.103397 36.024543 35.945933 35.867538 35.789328
35.711274 35.633345 35.555511 35.477740 35.400000
35.777778 35.867058 35.956372 36.045752 36.135233 36.224847 36.314626 36.404601
36.494805 36.585266 36.676015 36.767078 36.858484 36.950256 37.042420 37.134997
37.228010 37.321475 37.415412 37.509832 37.604753 37.700179 37.796126 37.892592
37.989586 38.087103 38.185147 38.283705 38.382777 38.482344 38.582398 38.682915
38.783880 38.885262 38.987040 39.089176 39.191641 39.294390 39.397388 39.500581
39.603928 39.707367 39.810849 39.914305 40.017680 40.120897 40.223892 40.326584
40.428900 40.530752 40.632062 40.732735 40.832686 40.931815 41.030031 41.127230
41.223315 41.318178 41.411718 41.503824 41.594392 41.683306 41.770463 41.855746
41.939050 42.020257 42.099263 42.175953 42.250223 42.321960 42.391065 42.457428
42.520954 42.581541 42.639097 42.693527 42.744747 42.792672 42.837225 42.878329
42.915919 42.949928 42.980300 43.006983 43.029931 43.049104 43.064469 43.075999
43.083675 43.087482 43.087416 43.083475 43.075668 43.064009 43.048517 43.029222
43.006156 42.979361 42.948883 42.914775 42.877095 42.835909 42.791284 42.743299
42.692028 42.637561 42.579981 42.519385 42.455865 42.389522 42.320456 42.248774
42.174579 42.097983 42.019091 41.938020 41.854874 41.769771 41.682819 41.594134
41.503821 41.411998 41.318766 41.224242 41.128523 41.031722 40.933934 40.835266
40.735808 40.635662 40.534914 40.433659 40.331976 40.229955 40.127668 40.025198
39.922610 39.819980 39.717367 39.614838 39.512444 39.410247 39.308289 39.206624
39.105289 39.004330 38.903774 38.803662 38.704014 38.604863 38.506223 38.408120
38.310561 38.213565 38.117135 38.021281 37.926001 37.831300 37.737170 37.643610
37.550608 37.458157 37.366240 37.274847 37.183955 37.093550 37.003606 36.914106
36.825019 36.736325 36.647991 36.559993 36.472297 36.384876 36.297694 36.210720
36.123921 36.037262 35.950708 35.864225 35.777778
36.155556 36.253854 36.352190 36.450600 36.549121 36.647790 36.746642 36.845713
36.945036 37.044647 37.144575 37.244854 37.345512 37.446579 37.548080 37.650042
37.752485 37.855434 37.958904 38.062917 38.167481 38.272614 38.378320 38.484611
38.591484 38.698947 38.806990 38.915615 39.024807 39.134559 39.244849 39.355664
39.466975 39.578763 39.690988 39.803624 39.916625 40.029957 40.143565 40.257406
40.371418 40.485551 40.599733 40.713905 40.827989 40.941918 41.055605 41.168974
41.281933 41.394397 41.506265 41.617447 41.727836 41.837334 41.945827 42.053213
42.159372 42.264196 42.367563 42.469359 42.569458 42.667746 42.764093 42.858382
42.950484 43.040283 43.127648 43.212465 43.294606 43.373957 43.450397 43.523814
43.594093 43.661128 43.724810 43.785041 43.841720 43.894758 43.944064 43.989558
44.031161 44.068806 44.102424 44.131961 44.157363 44.178587 44.195596 44.208361
44.216859 44.221075 44.221002 44.216640 44.207998 44.195091 44.177943 44.156584
44.131053 44.101392 44.067658 44.029905 43.988203 43.942619 43.893234 43.840129
43.783396 43.723124 43.659416 43.592370 43.522097 43.448703 43.372306 43.293016
43.210957 43.126243 43.039004 42.949354 42.857425 42.763335 42.667213 42.569178
42.469359 42.367873 42.264847 42.160394 42.054639 41.947690 41.839669 41.730677
41.620831 41.510228 41.398978 41.287171 41.174909 41.062277 40.949370 40.836263
40.723044 40.609781 40.496555 40.383423 40.270459 40.157714 40.045250 39.933112
39.821354 39.710012 39.599132 39.488742 39.378881 39.269568 39.160834 39.052693
38.945167 38.838261 38.731993 38.626361 38.521375 38.417027 38.313320 38.210242
38.107790 38.005945 37.904699 37.804029 37.703922 37.604351 37.505297 37.406730
37.308627 37.210956 37.113688 37.016790 36.920230 36.823971 36.727981 36.632220
36.536654 36.441242 36.345948 36.250732 36.155556
36.533333 36.640675 36.748058 36.855522 36.963109 37.070859 37.178811 37.287002
37.395474 37.504260 37.613399 37.722922 37.832865 37.943257 38.054130 38.165508
38.277422 38.389889 38.502937 38.616578 38.730834 38.845712 38.961230 39.077389
39.194198 39.311654 39.429759 39.548503 39.667881 39.787875 39.908474 40.029650
40.151386 40.273645 40.396402 40.519612 40.643240 40.767233 40.891548 41.016121
41.140903 41.265819 41.390811 41.515795 41.640705 41.765448 41.889947 42.014104
42.137830 42.261020 42.383578 42.505389 42.626352 42.746342 42.865252 42.982952
43.099327 43.214243 43.327580 43.439199 43.548976 43.656768 43.762450 43.865878
43.966923 44.065443 44.161308 44.254379 44.344527 44.431615 44.515519 44.596108
44.673262 44.746855 44.816777 44.882909 44.945150 45.003391 45.057541 45.107504
45.153199 45.194545 45.231472 45.263916 45.291820 45.315135 45.333821 45.347844
45.357180 45.361812 45.361732 45.356941 45.347448 45.333271 45.314434 45.290972
45.262927 45.230349 45.193294 45.151831 45.106027 45.055967 45.001731 44.943417
44.881117 44.814940 44.744990 44.671385 44.594238 44.513675 44.429817 44.342796
44.252737 44.159779 44.064051 43.965694 43.864838 43.761627 43.656191 43.548674
43.439204 43.327923 43.214957 43.100447 42.984512 42.867289 42.748893 42.629455
42.509085 42.387906 42.266022 42.143549 42.020582 41.897230 41.773581 41.649735
41.525769 41.401777 41.277828 41.154004 41.030366 40.906988 40.783921 40.661231
40.538959 40.417162 40.295873 40.175139 40.054985 39.935449 39.816548 39.698313
39.580751 39.463886 39.347718 39.232261 39.117511 39.003473 38.890138 38.777503
38.665552 38.554278 38.443659 38.333681 38.224318 38.115551 38.007350 37.899689
37.792536 37.685862 37.579629 37.473806 37.368353 37.263234 37.158409 37.053838
36.949479 36.845293 36.741234 36.637262 36.533333
36.911111 37.027522 37.143978 37.260524 37.377204 37.494062 37.611140 37.728483
37.846131 37.964125 38.082503 38.201305 38.320564 38.440318 38.560596 38.681432
38.802850 38.924881 39.047543 39.170862 39.294851 39.419529 39.544904 39.670989
39.797784 39.925297 40.053518 40.182450 40.312074 40.442385 40.573357 40.704976
40.837207 40.970027 41.103392 41.237270 41.371608 41.506364 41.641475 41.776890
41.912536 42.048352 42.184256 42.320176 42.456019 42.591706 42.727133 42.862212
42.996829 43.130886 43.264261 43.396848 43.528516 43.659150 43.788614 43.916783
44.043516 44.168682 44.292132 44.413734 44.533332 44.650790 44.765952 44.878678
44.988810 45.096207 45.200715 45.302192 45.400485 45.495456 45.586958 45.674857
45.759011 45.839293 45.915570 45.987724 46.055631 46.119183 46.178271 46.232796
46.282663 46.327788 46.368091 46.403504 46.433961 46.459412 46.479808 46.495116
46.505307 46.510364 46.510278 46.505049 46.494688 46.479213 46.458653 46.433044
46.402434 46.366876 46.326436 46.281183 46.231199 46.176568 46.117388 46.053757
45.985786 45.913584 45.837277 45.756982 45.672836 45.584965 45.493513 45.398614
45.300418 45.199063 45.094704 44.987483 44.877556 44.765065 44.650170 44.533010
44.413743 44.292508 44.169460 44.044733 43.918478 43.790825 43.661919 43.531883
43.400856 43.268954 43.136309 43.003028 42.869235 42.735028 42.600521 42.465806
42.330985 42.196141 42.061367 41.926734 41.792327 41.658207 41.524449 41.391104
41.258237 41.125889 40.994115 40.862947 40.732431 40.602590 40.473459 40.345053
40.217398 40.090502 39.964381 39.839035 39.714473 39.590687 39.467678 39.345432
39.223944 39.103191 38.983162 38.863831 38.745179 38.627175 38.509795 38.393003
38.276771 38.161059 38.045834 37.931055 37.816683 37.702674 37.588989 37.475580
37.362405 37.249416 37.136570 37.023817 36.911111
37.288889 37.414397 37.539955 37.665610 37.791411 37.917406 38.043642 38.170165
38.297022 38.424254 38.551907 38.680018 38.808632 38.937782 39.067507 39.197836
39.328806 39.460438 39.592766 39.725805 39.859582 39.994106 40.129398 40.265461
40.402307 40.539931 40.678341 40.817521 40.957469 41.098164 41.239594 41.381728
41.524546 41.668005 41.812077 41.956709 42.101863 42.247475 42.393496 42.539853
42.686485 42.833309 42.980253 43.127223 43.274137 43.420889 43.567388 43.713518
43.859175 44.004235 44.148584 44.292088 44.434624 44.576049 44.716233 44.855024
44.992284 45.127855 45.261593 45.393334 45.522929 45.650212 45.775028 45.897210
46.016601 46.133034 46.246352 46.356389 46.462991 46.565995 46.665251 46.760601
46.851903 46.939006 47.021776 47.100072 47.173771 47.242743 47.306878 47.366062
47.420195 47.469181 47.512937 47.551382 47.584451 47.612083 47.634230 47.650852
47.661918 47.667410 47.667317 47.661641 47.650392 47.633590 47.611267 47.583465
47.550232 47.511630 47.467727 47.418604 47.364345 47.305048 47.240813 47.171756
47.097989 47.019641 46.936838 46.849722 46.758429 46.663109 46.563906 46.460982
46.354484 46.244579 46.131420 46.015178 45.896007 45.774079 45.649548 45.522588
45.393349 45.262003 45.128698 44.993600 44.856854 44.718620 44.579036 44.438255
44.296409 44.153643 44.010080 43.865857 43.721086 43.575895 43.430388 43.284682
43.138869 42.993058 42.847329 42.701781 42.556483 42.411522 42.266958 42.122866
41.979296 41.836313 41.693955 41.552276 41.411305 41.271087 41.131640 40.992998
40.855172 40.718185 40.582039 40.446749 40.312309 40.178725 40.045983 39.914081
39.782999 39.652726 39.523238 39.394515 39.266528 39.139253 39.012652 38.886697
38.761347 38.636568 38.512316 38.388552 38.265228 38.142303 38.019727 37.897455
37.775435 37.653619 37.531957 37.410397 37.288889
37.666667 37.801302 37.935991 38.070785 38.205738 38.340901 38.476325 38.612061
38.748157 38.884663 39.021623 39.159085 39.297087 39.435675 39.574883 39.714753
39.855313 39.996599 40.138634 40.281450 40.425061 40.569493 40.714753 40.860860
41.007813 41.155624 41.304282 41.453791 41.604132 41.755297 41.907260 42.060003
42.213488 42.367690 42.522557 42.678053 42.834119 42.990705 43.147740 43.305164
43.462894 43.620860 43.778965 43.937127 44.095239 44.253208 44.410914 44.568253
44.725094 44.881322 45.036795 45.191388 45.344949 45.497343 45.648409 45.798004
45.945958 46.092120 46.236315 46.378385 46.518150 46.655445 46.790090 46.921916
47.050739 47.176392 47.298691 47.417469 47.532545 47.643755 47.750923 47.853891
47.952490 48.046570 48.135972 48.220554 48.300170 48.374692 48.443987 48.507940
48.566437 48.619377 48.666664 48.708217 48.743958 48.773826 48.797765 48.815732
48.827695 48.833632 48.833533 48.827399 48.815240 48.797080 48.772954 48.742903
48.706987 48.665267 48.617822 48.564735 48.506104 48.442030 48.372628 48.298016
48.218326 48.133689 48.044253 47.950159 47.851569 47.748634 47.641523 47.530397
47.415434 47.296797 47.174670 47.049220 46.920633 46.789078 46.654741 46.517789
46.378408 46.236761 46.093030 45.947374 45.799971 45.650972 45.500548 45.348845
45.196024 45.042221 44.887590 44.732258 44.576367 44.420034 44.263391 44.106543
43.949611 43.792690 43.635888 43.479289 43.322989 43.167060 43.011587 42.856630
42.702262 42.548532 42.395502 42.243209 42.091704 41.941013 41.791178 41.642212
41.494147 41.346989 41.200758 41.055451 40.911078 40.767628 40.625102 40.483482
40.342761 40.202913 40.063923 39.925758 39.788398 39.651804 39.515948 39.380787
39.246288 39.112403 38.979093 38.846308 38.714004 38.582130 38.450636 38.319468
38.188576 38.057904 37.927399 37.797005 37.666667
38.044444 38.188238 38.332088 38.476053 38.620189 38.764551 38.909197 39.054178
39.199551 39.345364 39.491670 39.638515 39.785950 39.934013 40.082752 40.232201
40.382403 40.533385 40.685185 40.837824 40.991332 41.145722 41.301019 41.457227
41.614363 41.772421 41.931411 42.091317 42.252138 42.413850 42.576441 42.739876
42.904134 43.069167 43.234942 43.401401 43.568500 43.736167 43.904346 44.072953
44.241921 44.411152 44.580566 44.750054 44.919521 45.088848 45.257927 45.426625
45.594823 45.762377 45.929156 46.095003 46.259777 46.423311 46.585454 46.746030
46.904878 47.061813 47.216668 47.369252 47.519389 47.666886 47.811562 47.953220
48.091678 48.226737 48.358216 48.485916 48.609659 48.729251 48.844517 48.955270
49.061341 49.162555 49.258750 49.349763 49.435445 49.515645 49.590232 49.659069