# vtk DataFile Version 3.0
Steady-state temperature (Jacobi)
ASCII
DATASET STRUCTURED_POINTS
DIMENSIONS 181 181 1
ORIGIN 0.0 0.0 0.0
SPACING 0.05 0.05 1.0
POINT_DATA 32761
SCALARS Temperature float 1
LOOKUP_TABLE default
32.000000 32.000000 32.000000 32.000000 32.000000 32.000000 32.000000 32.000000
32.000000 32.000000 32.000000 32.000000 32.000000 32.000000 32.000000 32.000000
32.000000 32.000000 32.000000 32.000000 32.000000 32.000000 32.000000 32.000000
32.000000 32.000000 32.000000 32.000000 32.000000 32.000000 32.000000 32.000000
32.000000 32.000000 32.000000 32.000000 32.000000 32.000000 32.000000 32.000000
32.000000 32.000000 32.000000 32.000000 32.000000 32.000000 32.000000 32.000000
32.000000 32.000000 32.000000 32.000000 32.000000 32.000000 32.000000 32.000000
32.000000 32.000000 32.000000 32.000000 32.000000 32.000000 32.000000 32.000000
32.000000 32.000000 32.000000 32.000000 32.000000 32.000000 32.000000 32.000000
32.000000 32.000000 32.000000 32.000000 32.000000 32.000000 32.000000 32.000000
32.000000 32.000000 32.000000 32.000000 32.000000 32.000000 32.000000 32.000000
32.000000 32.000000 32.000000 32.000000 32.000000 32.000000 32.000000 32.000000
32.000000 32.000000 32.000000 32.000000 32.000000 32.000000 32.000000 32.000000
32.000000 32.000000 32.000000 32.000000 32.000000 32.000000 32.000000 32.000000
32.000000 32.000000 32.000000 32.000000 32.000000 32.000000 32.000000 32.000000
32.000000 32.000000 32.000000 32.000000 32.000000 32.000000 32.000000 32.000000
32.000000 32.000000 32.000000 32.000000 32.000000 32.000000 32.000000 32.000000
32.000000 32.000000 32.000000 32.000000 32.000000 32.000000 32.000000 32.000000
32.000000 32.000000 32.000000 32.000000 32.000000 32.000000 32.000000 32.000000
32.000000 32.000000 32.000000 32.000000 32.000000 32.000000 32.000000 32.000000
32.000000 32.000000 32.000000 32.000000 32.000000 32.000000 32.000000 32.000000
32.000000 32.000000 32.000000 32.000000 32.000000 32.000000 32.000000 32.000000
32.000000 32.000000 32.000000 32.000000 32.000000
32.377778 32.371586 32.365404 32.359244 32.353114 32.347028 32.340992 32.335020
32.329120 32.323303 32.317577 32.311955 32.306442 32.301053 32.295790 32.290669
32.285692 32.280873 32.276214 32.271730 32.267420 32.263299 32.259365 32.255633
32.252100 32.248780 32.245669 32.242781 32.240110 32.237670 32.235452 32.233471
32.231717 32.230204 32.228919 32.227877 32.227063 32.226490 32.226143 32.226035
32.226148 32.226494 32.227054 32.227839 32.228830 32.230035 32.231434 32.233035
32.234816 32.236785 32.238918 32.241222 32.243671 32.246273 32.249000 32.251860
32.254823 32.257896 32.261051 32.264291 32.267588 32.270947 32.274338 32.277763
32.281196 32.284638 32.288061 32.291466 32.294828 32.298145 32.301393 32.304571
32.307656 32.310646 32.313521 32.316277 32.318896 32.321376 32.323699 32.325863
32.327853 32.329667 32.331293 32.332729 32.333965 32.334999 32.335825 32.336441
32.336843 32.337030 32.337002 32.336757 32.336297 32.335624 32.334740 32.333647
32.332352 32.330856 32.329169 32.327293 32.325240 32.323012 32.320625 32.318078
32.315392 32.312565 32.309620 32.306557 32.303398 32.300144 32.296818 32.293421
32.289978 32.286489 32.282981 32.279451 32.275929 32.272411 32.268926 32.265472
32.262076 32.258736 32.255479 32.252302 32.249233 32.246266 32.243429 32.240715
32.238153 32.235735 32.233486 32.231400 32.229501 32.227780 32.226260 32.224934
32.223822 32.222914 32.222231 32.221763 32.221528 32.221514 32.221740 32.222192
32.222887 32.223811 32.224980 32.226378 32.228020 32.229891 32.232001 32.234337
32.236907 32.239697 32.242714 32.245944 32.249392 32.253044 32.256902 32.260954
32.265200 32.269626 32.274233 32.279006 32.283944 32.289034 32.294273 32.299646
32.305151 32.310773 32.316507 32.322341 32.328268 32.334276 32.340357 32.346498
32.352692 32.358927 32.365193 32.371480 32.377778
32.755556 32.743176 32.730818 32.718501 32.706249 32.694078 32.682015 32.670073
32.658280 32.646649 32.635206 32.623964 32.612949 32.602170 32.591657 32.581415
32.571474 32.561837 32.552534 32.543565 32.534960 32.526717 32.518866 32.511402
32.504355 32.497715 32.491513 32.485737 32.480416 32.475535 32.471123 32.467161
32.463678 32.460651 32.458108 32.456023 32.454422 32.453277 32.452613 32.452397
32.452654 32.453347 32.454499 32.456072 32.458086 32.460499 32.463330 32.466536
32.470133 32.474075 32.478376 32.482987 32.487922 32.493130 32.498622 32.504346
32.510310 32.516462 32.522808 32.529294 32.535926 32.542649 32.549467 32.556325
32.563227 32.570117 32.576997 32.583814 32.590569 32.597210 32.603737 32.610100
32.616299 32.622287 32.628061 32.633581 32.638842 32.643807 32.648474 32.652807
32.656805 32.660438 32.663704 32.666579 32.669061 32.671133 32.672791 32.674025
32.674832 32.675208 32.675151 32.674661 32.673738 32.672389 32.670614 32.668426
32.665825 32.662830 32.659442 32.655685 32.651562 32.647101 32.642304 32.637206
32.631809 32.626151 32.620234 32.614102 32.607755 32.601240 32.594557 32.587757
32.580838 32.573853 32.566802 32.559736 32.552655 32.545614 32.538608 32.531693
32.524865 32.518179 32.511628 32.505269 32.499092 32.493153 32.487442 32.482011
32.476850 32.472010 32.467476 32.463301 32.459467 32.456022 32.452949 32.450294
32.448036 32.446219 32.444822 32.443884 32.443383 32.443355 32.443777 32.444681
32.446043 32.447892 32.450203 32.453000 32.456259 32.460001 32.464198 32.468870
32.473989 32.479570 32.485584 32.492045 32.498922 32.506226 32.513926 32.522029
32.530505 32.539358 32.548557 32.558103 32.567968 32.578147 32.588612 32.599358
32.610357 32.621600 32.633060 32.644726 32.656572 32.668585 32.680739 32.693019
32.705401 32.717868 32.730395 32.742965 32.755556
33.133333 33.114776 33.096250 33.077789 33.059420 33.041180 33.023093 33.005198
32.987517 32.970088 32.952932 32.936089 32.919574 32.903429 32.887666 32.872329
32.857424 32.842996 32.829048 32.815624 32.802725 32.790393 32.778625 32.767464
32.756901 32.746980 32.737685 32.729063 32.721091 32.713814 32.707207 32.701312
32.696099 32.691609 32.687807 32.684734 32.682347 32.680687 32.679707 32.679443
32.679845 32.680948 32.682696 32.685120 32.688162 32.691850 32.696120 32.700999
32.706419 32.712403 32.718880 32.725872 32.733302 32.741189 32.749456 32.758118
32.767094 32.776398 32.785947 32.795753 32.805732 32.815893 32.826151 32.836513
32.846896 32.857304 32.867655 32.877952 32.888114 32.898143 32.907962 32.917570
32.926896 32.935936 32.944623 32.952956 32.960872 32.968367 32.975387 32.981929
32.987943 32.993427 32.998341 33.002681 33.006415 33.009542 33.012037 33.013900
33.015115 33.015682 33.015596 33.014857 33.013470 33.011434 33.008764 33.005462
33.001549 32.997029 32.991933 32.986264 32.980061 32.973328 32.966113 32.958418
32.950299 32.941758 32.932858 32.923600 32.914052 32.904216 32.894163 32.883895
32.873488 32.862940 32.852332 32.841661 32.831009 32.820371 32.809831 32.799382
32.789110 32.779003 32.769148 32.759531 32.750237 32.741252 32.732657 32.724435
32.716667 32.709331 32.702507 32.696170 32.690395 32.685157 32.680526 32.676474
32.673068 32.670276 32.668162 32.666692 32.665923 32.665821 32.666438 32.667737
32.669765 32.672485 32.675938 32.680084 32.684960 32.690525 32.696810 32.703774
32.711442 32.719772 32.728786 32.738438 32.748746 32.759666 32.771209 32.783331
32.796038 32.809287 32.823079 32.837371 32.852161 32.867405 32.883096 32.899193
32.915684 32.932528 32.949711 32.967192 32.984954 33.002956 33.021179 33.039584
33.058148 33.076834 33.095616 33.114459 33.133333
33.511111 33.486390 33.461713 33.437118 33.412652 33.388350 33.364263 33.340421
33.316876 33.293657 33.270815 33.248375 33.226391 33.204883 33.183906 33.163474
33.143645 33.124426 33.105876 33.087998 33.070850 33.054429 33.038794 33.023935
33.009912 32.996708 32.984382 32.972911 32.962353 32.952679 32.943946 32.936117
32.929248 32.923295 32.918314 32.914252 32.911163 32.908989 32.907779 32.907471
32.908110 32.909626 32.912065 32.915347 32.919515 32.924485 32.930296 32.936857
32.944205 32.952243 32.961004 32.970388 32.980422 32.991003 33.002155 33.013770
33.025869 33.038343 33.051207 33.064351 33.077787 33.091404 33.105212 33.119097
33.133069 33.147015 33.160940 33.174736 33.188405 33.201841 33.215046 33.227919
33.240458 33.252569 33.264250 33.275413 33.286055 33.296097 33.305534 33.314298
33.322383 33.329730 33.336335 33.342150 33.347170 33.351359 33.354714 33.357209
33.358843 33.359604 33.359489 33.358500 33.356636 33.353909 33.350322 33.345898
33.340641 33.334586 33.327738 33.320144 33.311808 33.302789 33.293091 33.282783
33.271870 33.260429 33.248465 33.236064 33.223228 33.210051 33.196535 33.182779
33.168784 33.154653 33.140385 33.126089 33.111758 33.097505 33.083322 33.069321
33.055493 33.041949 33.028676 33.015786 33.003263 32.991217 32.979626 32.968600
32.958114 32.948273 32.939048 32.930540 32.922719 32.915680 32.909387 32.903933
32.899277 32.895507 32.892579 32.890573 32.889445 32.889266 32.889990 32.891683
32.894295 32.897886 32.902402 32.907897 32.914316 32.921706 32.930010 32.939267
32.949420 32.960501 32.972453 32.985299 32.998982 33.013520 33.028854 33.044997
33.061888 33.079534 33.097877 33.116915 33.136591 33.156899 33.177781 33.199226
33.221178 33.243621 33.266498 33.289790 33.313441 33.337428 33.361698 33.386220
33.410947 33.435843 33.460862 33.485966 33.511111
33.888889 33.858024 33.827211 33.796506 33.765957 33.735622 33.705544 33.675787
33.646387 33.617411 33.588891 33.560893 33.533446 33.506618 33.480429 33.454952
33.430199 33.406244 33.383093 33.360820 33.339423 33.318978 33.299475 33.280990
33.263505 33.247095 33.231735 33.217499 33.204353 33.192371 33.181511 33.171843
33.163317 33.156003 33.149841 33.144899 33.141109 33.138534 33.137099 33.136864
33.137745 33.139800 33.142935 33.147205 33.152508 33.158895 33.166257 33.174639
33.183927 33.194162 33.205222 33.217143 33.229798 33.243220 33.257276 33.271994
33.287238 33.303030 33.319232 33.335862 33.352781 33.370001 33.387384 33.404937
33.422523 33.440148 33.457674 33.475104 33.492306 33.509279 33.525896 33.542154
33.557933 33.573228 33.587926 33.602022 33.615412 33.628091 33.639966 33.651030
33.661204 33.670480 33.678791 33.686132 33.692449 33.697738 33.701960 33.705111
33.707168 33.708129 33.707986 33.706738 33.704394 33.700954 33.696442 33.690860
33.684246 33.676605 33.667990 33.658405 33.647918 33.636534 33.624334 33.611323
33.597593 33.583150 33.568098 33.552440 33.536291 33.519653 33.502646 33.485275
33.467664 33.449816 33.431861 33.413798 33.395764 33.377751 33.359899 33.342198
33.324790 33.307659 33.290947 33.274635 33.258861 33.243604 33.229000 33.215022
33.201801 33.189308 33.177668 33.166848 33.156968 33.147987 33.140024 33.133031
33.127120 33.122239 33.118492 33.115826 33.114334 33.113959 33.114789 33.116762
33.119956 33.124309 33.129889 33.136631 33.144595 33.153714 33.164038 33.175499
33.188140 33.201889 33.216781 33.232744 33.249805 33.267890 33.287018 33.307115
33.328192 33.350175 33.373068 33.396798 33.421360 33.446683 33.472754 33.499504
33.526914 33.554914 33.583482 33.612548 33.642084 33.672023 33.702330 33.732943
33.763821 33.794903 33.826146 33.857491 33.888889
34.266667 34.229681 34.192760 34.155963 34.119361 34.083008 34.046977 34.011316
33.976103 33.941380 33.907227 33.873679 33.840820 33.808676 33.777335 33.746815
33.717204 33.688513 33.660832 33.634163 33.608596 33.584125 33.560840 33.538725
33.517871 33.498253 33.479959 33.462955 33.447330 33.433037 33.420165 33.408657
33.398597 33.389921 33.382711 33.376889 33.372535 33.369563 33.368047 33.367891
33.369167 33.371767 33.375758 33.381025 33.387628 33.395443 33.404527 33.414746
33.426150 33.438598 33.452137 33.466616 33.482076 33.498361 33.515508 33.533353
33.551928 33.571067 33.590794 33.610940 33.631526 33.652382 33.673522 33.694777
33.716156 33.737492 33.758792 33.779891 33.800791 33.821335 33.841520 33.861197
33.880361 33.898871 33.916720 33.933779 33.950039 33.965382 33.979801 33.993190
34.005542 34.016767 34.026858 34.035742 34.043412 34.049813 34.054939 34.058753
34.061252 34.062416 34.062245 34.060737 34.057893 34.053732 34.048257 34.041505
34.033479 34.024235 34.013780 34.002184 33.989455 33.975683 33.960874 33.945132
33.928465 33.910990 33.892715 33.873771 33.854161 33.834028 33.813376 33.792354
33.770963 33.749362 33.727549 33.705686 33.683768 33.661963 33.640260 33.618828
33.597654 33.576907 33.556568 33.536805 33.517595 33.499102 33.481298 33.464345
33.448207 33.433041 33.418807 33.405656 33.393540 33.382606 33.372799 33.364258
33.356924 33.350925 33.346199 33.342865 33.340857 33.340282 33.341071 33.343322
33.346961 33.352075 33.358589 33.366579 33.375964 33.386814 33.399043 33.412711
33.427731 33.444151 33.461884 33.480967 33.501313 33.522948 33.545783 33.569838
33.595022 33.621344 33.648717 33.677139 33.706522 33.736858 33.768060 33.800112
33.832927 33.866481 33.900691 33.935525 33.970903 34.006785 34.043093 34.079784
34.116781 34.154034 34.191472 34.229038 34.266667
34.644444 34.601367 34.558363 34.515510 34.472876 34.430544 34.388576 34.347058
34.306044 34.265626 34.225850 34.186811 34.148547 34.111155 34.074664 34.039175
34.004708 33.971363 33.939152 33.908177 33.878438 33.850039 33.822969 33.797332
33.773106 33.750394 33.729164 33.709517 33.691408 33.674940 33.660053 33.646847
33.635253 33.625368 33.617108 33.610568 33.605654 33.602454 33.600862 33.600964
33.602640 33.605973 33.610830 33.617288 33.625205 33.634651 33.645473 33.657735
33.671276 33.686152 33.702191 33.719447 33.737738 33.757109 33.777375 33.798573
33.820511 33.843221 33.866507 33.890394 33.914685 33.939398 33.964334 33.989507
34.014720 34.039980 34.065094 34.090066 34.114706 34.139014 34.162809 34.186086
34.208675 34.230569 34.251607 34.271782 34.290946 34.309091 34.326084 34.341917
34.356475 34.369748 34.381641 34.392146 34.401186 34.408755 34.414798 34.419309
34.422256 34.423635 34.423434 34.421654 34.418306 34.413390 34.406941 34.398961
34.389506 34.378581 34.366263 34.352557 34.337560 34.321280 34.303831 34.285221
34.265582 34.244922 34.223388 34.200987 34.177878 34.154068 34.129728 34.104862
34.079651 34.054094 34.028380 34.002506 33.976665 33.950849 33.925255 33.899871
33.874894 33.850307 33.826306 33.802868 33.780188 33.758236 33.737203 33.717053
33.697971 33.679914 33.663063 33.647367 33.632998 33.619899 33.608235 33.597941
33.589173 33.581860 33.576147 33.571958 33.569427 33.568473 33.569218 33.571576
33.575657 33.581372 33.588819 33.597904 33.608713 33.621150 33.635288 33.651028
33.668432 33.687398 33.707976 33.730063 33.753697 33.778775 33.805322 33.833236
33.862530 33.893101 33.924955 33.957987 33.992191 34.027467 34.063798 34.101084
34.139300 34.178347 34.218193 34.258742 34.299952 34.341730 34.384027 34.426753
34.469853 34.513241 34.556854 34.600612 34.644444
35.022222 34.973085 34.924034 34.875152 34.826530 34.778241 34.730385 34.683027
34.636270 34.590171 34.544837 34.500316 34.456719 34.414085 34.372526 34.332072
34.292838 34.254840 34.218198 34.182916 34.149115 34.116786 34.086050 34.056888
34.029419 34.003611 33.979583 33.957290 33.936849 33.918201 33.901461 33.886556
33.873600 33.862504 33.853378 33.846122 33.840839 33.837416 33.835951 33.836318
33.838609 33.842684 33.848630 33.856293 33.865755 33.876848 33.889649 33.903976
33.919899 33.937227 33.956022 33.976082 33.997461 34.019951 34.043597 34.068183
34.093748 34.120069 34.147177 34.174848 34.203104 34.231718 34.260708 34.289847
34.319145 34.348377 34.377549 34.406442 34.435055 34.463175 34.490800 34.517726
34.543946 34.569269 34.593686 34.617019 34.639258 34.660243 34.679961 34.698272
34.715163 34.730514 34.744313 34.756462 34.766952 34.775707 34.782719 34.787938
34.791359 34.792955 34.792726 34.790671 34.786791 34.781110 34.773633 34.764409
34.753445 34.740816 34.726531 34.710686 34.693293 34.674471 34.654232 34.632716
34.609934 34.586046 34.561063 34.535159 34.508346 34.480811 34.452564 34.423805
34.394539 34.364978 34.335120 34.305186 34.275171 34.245298 34.215557 34.186175
34.157134 34.128664 34.100739 34.073586 34.047174 34.021726 33.997203 33.973823
33.951540 33.930564 33.910842 33.892577 33.875707 33.860424 33.846661 33.834600
33.824164 33.815525 33.808601 33.803548 33.800280 33.798941 33.799437 33.801899
33.806229 33.812544 33.820741 33.830923 33.842983 33.857011 33.872895 33.890712
33.910348 33.931865 33.955147 33.980243 34.007036 34.035561 34.065701 34.097477
34.130771 34.165595 34.201829 34.239472 34.278407 34.318621 34.359998 34.402515
34.446058 34.490594 34.536010 34.582264 34.629247 34.676908 34.725141 34.773887
34.823045 34.872546 34.922296 34.972217 35.022222
35.400000 35.344842 35.289778 35.234912 35.180328 35.126137 35.072416 35.019279
34.966795 34.915084 34.864204 34.814280 34.765360 34.717570 34.670950 34.625627
34.581629 34.539087 34.498014 34.458545 34.420678 34.384550 34.350145 34.317599
34.286883 34.258132 34.231303 34.206529 34.183752 34.163102 34.144507 34.128093
34.113773 34.101670 34.091678 34.083920 34.078273 34.074853 34.073522 34.074391
34.077307 34.082374 34.089422 34.098551 34.109575 34.122586 34.137386 34.154057
34.172389 34.192456 34.214036 34.237194 34.261697 34.287602 34.314669 34.342943
34.372178 34.402411 34.433390 34.465143 34.497416 34.530230 34.563327 34.596723
34.630161 34.663649 34.696936 34.730023 34.762665 34.794859 34.826370 34.857189
34.887094 34.916074 34.943920 34.970619 34.995980 35.019989 35.042475 35.063423
35.082685 35.100246 35.115983 35.129882 35.141844 35.151860 35.159858 35.165831
35.169734 35.171565 35.171307 35.168961 35.164541 35.158048 35.149527 35.138983
35.126488 35.112049 35.095766 35.077649 35.057822 35.036299 35.013227 34.988620
34.962648 34.935326 34.906842 34.877210 34.846637 34.815133 34.782922 34.750010
34.716633 34.682793 34.648736 34.614459 34.580213 34.545991 34.512049 34.478372
34.445217 34.412563 34.380666 34.349497 34.319309 34.290065 34.262013 34.235106
34.209586 34.185398 34.162776 34.141654 34.122257 34.104512 34.088629 34.074529
34.062410 34.052184 34.044035 34.037869 34.033855 34.031891 34.032134 34.034473
34.039049 34.045749 34.054696 34.065772 34.079085 34.094513 34.112147 34.131862
34.153735 34.177637 34.203629 34.231580 34.261538 34.293368 34.327105 34.362613
34.399912 34.438867 34.479484 34.521629 34.565295 34.610348 34.656770 34.704430
34.753294 34.803237 34.854215 34.906103 34.958848 35.012329 35.066482 35.121192
35.176385 35.231952 35.287811 35.343857 35.400000
35.777778 35.716639 35.655611 35.594793 35.534305 35.474237 35.414715 35.355820
35.297683 35.240376 35.184035 35.128719 35.074568 35.021632 34.970053 34.919867
34.871220 34.824134 34.778758 34.735100 34.693309 34.653377 34.615456 34.579522
34.545726 34.514027 34.484577 34.457317 34.432397 34.409742 34.389497 34.371572
34.356109 34.342998 34.332376 34.324118 34.318355 34.314943 34.314008 34.315389
34.319204 34.325275 34.333714 34.344324 34.357210 34.372161 34.389270 34.408312
34.429372 34.452210 34.476901 34.503194 34.531154 34.560518 34.591342 34.623353
34.656597 34.690795 34.725983 34.761877 34.798504 34.835576 34.873114 34.910829
34.948732 34.986541 35.024257 35.061603 35.098577 35.134909 35.170591 35.205367
35.239224 35.271921 35.303442 35.333563 35.362268 35.389354 35.414802 35.438434
35.460232 35.480043 35.497851 35.513531 35.527069 35.538370 35.547423 35.554163
35.558584 35.560653 35.560366 35.557725 35.552729 35.545412 35.535778 35.523891
35.509760 35.493481 35.475065 35.454636 35.432211 35.407940 35.381841 35.354091
35.324708 35.293894 35.261664 35.228242 35.193643 35.158107 35.121646 35.084517
35.046727 35.008544 34.969971 34.931286 34.892486 34.853852 34.815377 34.777345
34.739738 34.702844 34.666636 34.631398 34.597095 34.564006 34.532087 34.501611
34.472522 34.445085 34.419235 34.395225 34.372982 34.352747 34.334435 34.318275
34.304173 34.292343 34.282683 34.275390 34.270355 34.267759 34.267485 34.269697
34.274271 34.281354 34.290816 34.302788 34.317133 34.333964 34.353141 34.374760
34.398676 34.424969 34.453491 34.484303 34.517259 34.552401 34.589580 34.628826
34.669988 34.713079 34.757951 34.804600 34.852879 34.902772 34.954133 35.006931
35.061023 35.116366 35.172820 35.230331 35.288762 35.348046 35.408053 35.468706
35.529878 35.591483 35.653402 35.715537 35.777778
36.155556 36.088485 36.021532 35.954821 35.888461 35.822583 35.757287 35.692711
35.628942 35.566126 35.504337 35.443727 35.384357 35.326383 35.269851 35.214923
35.161630 35.110136 35.060457 35.012758 34.967039 34.923467 34.882025 34.842880
34.805998 34.771543 34.739465 34.709927 34.682858 34.658420 34.636523 34.617325
34.600716 34.586850 34.575598 34.567109 34.561234 34.558114 34.557583 34.559774
34.564500 34.571889 34.581734 34.594153 34.608923 34.626151 34.645597 34.667360
34.691181 34.717149 34.744992 34.774788 34.806250 34.839446 34.874078 34.910202
34.947513 34.986054 35.025514 35.065925 35.106972 35.148678 35.190724 35.233126
35.275567 35.318053 35.360272 35.402222 35.443601 35.484400 35.524327 35.563368
35.601248 35.637948 35.673211 35.707015 35.739126 35.769520 35.797987 35.824504
35.848887 35.871116 35.891036 35.908630 35.923775 35.936457 35.946585 35.954151
35.959100 35.961427 35.961112 35.958155 35.952574 35.944374 35.933605 35.920279
35.904483 35.886229 35.865640 35.842732 35.817659 35.790439 35.761256 35.730132
35.697275 35.662708 35.626666 35.589168 35.550472 35.510595 35.469812 35.428136
35.385859 35.342989 35.299828 35.256378 35.212950 35.169539 35.126460 35.083699
35.041574 35.000063 34.959481 34.919796 34.881321 34.844012 34.808174 34.773755
34.741051 34.709998 34.680880 34.653624 34.628502 34.605427 34.584658 34.566099
34.549993 34.536233 34.525045 34.516313 34.510246 34.506719 34.505921 34.507722
34.512290 34.519487 34.529465 34.542078 34.557458 34.575454 34.596180 34.619479
34.645446 34.673922 34.704981 34.738463 34.774423 34.812699 34.853329 34.896149
34.941180 34.988257 35.037387 35.088404 35.141298 35.195907 35.252204 35.310029
35.369342 35.429987 35.491907 35.554952 35.619054 35.684065 35.749904 35.816432
35.883556 35.951140 36.019084 36.087260 36.155556
36.533333 36.460380 36.387560 36.314996 36.242831 36.171177 36.100184 36.029952
35.960640 35.892335 35.825200 35.759309 35.694833 35.631830 35.570473 35.510808
35.453010 35.397107 35.343280 35.291538 35.242062 35.194845 35.150069 35.107708
35.067941 35.030725 34.996238 34.964415 34.935434 34.909208 34.885911 34.865435
34.847951 34.833330 34.821735 34.813017 34.807333 34.804512 34.804705 34.807717
34.813691 34.822413 34.834016 34.848266 34.865285 34.884819 34.906982 34.931499
34.958472 34.987612 35.019007 35.052353 35.087726 35.124807 35.163662 35.203961
35.245755 35.288707 35.332855 35.377856 35.423738 35.470153 35.517118 35.564287
35.611666 35.658911 35.706021 35.752659 35.798814 35.844162 35.888686 35.932074
35.974306 36.015088 36.054395 36.091956 36.127745 36.161515 36.193240 36.222702
36.249875 36.274572 36.296772 36.316320 36.333199 36.347290 36.358580 36.366990
36.372510 36.375100 36.374757 36.371479 36.365270 36.356168 36.344180 36.329385
36.311796 36.291528 36.268599 36.243161 36.215235 36.185007 36.152501 36.117934
36.081331 36.042939 36.002781 35.961129 35.918007 35.873707 35.828249 35.781945
35.734809 35.687168 35.639031 35.590734 35.542278 35.494008 35.445917 35.398351
35.351293 35.305093 35.259720 35.215521 35.172457 35.130866 35.090696 35.052280
35.015553 34.980835 34.948050 34.917506 34.889113 34.863165 34.839560 34.818575
34.800098 34.784387 34.771319 34.761133 34.753696 34.749228 34.747587 34.748970
34.753229 34.760539 34.770745 34.784002 34.800146 34.819313 34.841333 34.866320
34.894100 34.924767 34.958144 34.994303 35.033066 35.074483 35.118376 35.164777
35.213505 35.264575 35.317805 35.373194 35.430560 35.489884 35.550990 35.613838
35.678257 35.744194 35.811479 35.880044 35.949725 36.020442 36.092035 36.164411
36.237417 36.310948 36.384858 36.459032 36.533333
36.911111 36.832333 36.753694 36.675346 36.597415 36.520063 36.443405 36.367609
36.292777 36.219085 36.146622 36.075568 36.005997 35.938096 35.871921 35.807663
35.745363 35.685213 35.627237 35.571629 35.518392 35.467725 35.419609 35.374241
35.331585 35.291835 35.254933 35.221073 35.190173 35.162424 35.137723 35.116255
35.097893 35.082819 35.070882 35.062258 35.056770 35.054589 35.055514 35.059706
35.066942 35.077374 35.090756 35.107228 35.126524 35.148772 35.173684 35.201377
35.231544 35.264288 35.299285 35.336623 35.375963 35.417381 35.460523 35.505451
35.551800 35.599619 35.648534 35.698580 35.749380 35.800956 35.852928 35.905307
35.957715 36.010152 36.062246 36.113988 36.165014 36.215308 36.264522 36.312631
36.359304 36.404514 36.447951 36.489585 36.529132 36.566560 36.601614 36.634265
36.664289 36.691659 36.716189 36.737853 36.756505 36.772123 36.784601 36.793925
36.800030 36.802908 36.802536 36.798914 36.792062 36.781988 36.768754 36.752374
36.732952 36.710509 36.685189 36.657017 36.626177 36.592696 36.556795 36.518504
36.478076 36.435541 36.391183 36.345030 36.297392 36.248296 36.198071 36.146740
36.094653 36.041824 35.988617 35.935041 35.881467 35.827895 35.774703 35.721880
35.669807 35.618460 35.568220 35.519050 35.471325 35.424997 35.380432 35.337568
35.296761 35.257936 35.221435 35.187170 35.155466 35.126223 35.099748 35.075930
35.055055 35.037000 35.022032 35.010015 35.001196 34.995427 34.992934 34.993559
34.997504 35.004605 35.015040 35.028636 35.045549 35.065600 35.088921 35.115329
35.144932 35.177541 35.213246 35.251852 35.293425 35.337772 35.384937 35.434723
35.487156 35.542039 35.599376 35.658972 35.720813 35.784706 35.850617 35.918357
35.987875 36.058985 36.131622 36.205602 36.280846 36.357176 36.434498 36.512641
36.591497 36.670904 36.750741 36.830854 36.911111
37.288889 37.204342 37.119953 37.035866 36.952250 36.869237 36.787006 36.705674
36.625428 36.546372 36.468699 36.392497 36.317965 36.245175 36.174331 36.105485
36.038848 35.974452 35.912508 35.853032 35.796235 35.742111 35.690874 35.642494
35.597185 35.554895 35.515835 35.479930 35.447389 35.418112 35.392303 35.369838
35.350918 35.335390 35.323450 35.314921 35.309990 35.308454 35.310492 35.315876
35.324773 35.336934 35.352511 35.371232 35.393239 35.418233 35.446346 35.477256
35.511081 35.547479 35.586552 35.627942 35.671735 35.717556 35.765477 35.815110
35.866510 35.919278 35.973456 36.028637 36.084850 36.141682 36.199148 36.256837
36.314751 36.372483 36.430023 36.486972 36.543313 36.598658 36.652981 36.705913
36.757421 36.807157 36.855086 36.900885 36.944515 36.985685 37.024357 37.060271
37.093392 37.123498 37.150557 37.174388 37.194965 37.212147 37.225916 37.236177
37.242918 37.246091 37.245690 37.241716 37.234171 37.223102 37.208520 37.190517
37.169111 37.144441 37.116530 37.085561 37.051561 37.014753 36.975171 36.933072
36.888491 36.841723 36.792802 36.742051 36.689504 36.635509 36.580096 36.523636
36.466152 36.408032 36.349293 36.290335 36.231165 36.172191 36.113411 36.055237
35.997654 35.941073 35.885467 35.831244 35.778362 35.727222 35.677769 35.630391
35.585019 35.542029 35.501336 35.463299 35.427820 35.395241 35.365447 35.338762
35.315056 35.294631 35.277347 35.263480 35.252879 35.245798 35.242073 35.241934
35.245206 35.252096 35.262420 35.276358 35.293721 35.314663 35.338987 35.366823
35.397969 35.432532 35.470304 35.511368 35.555513 35.602800 35.653016 35.706197
35.762132 35.820835 35.882094 35.945903 36.012051 36.080512 36.151078 36.223705
36.298187 36.374462 36.452329 36.531710 36.612409 36.694330 36.777286 36.861167
36.945792 37.031037 37.116730 37.202735 37.288889
37.666667 37.576418 37.486333 37.396586 37.307330 37.218748 37.130979 37.044217
36.958584 36.874284 36.791420 36.710205 36.630725 36.553198 36.477691 36.404427
36.333454 36.264998 36.199085 36.135946 36.075584 36.018229 35.963863 35.912716
35.864746 35.820182 35.778955 35.741293 35.707103 35.676607 35.649685 35.626556
35.607072 35.591445 35.579502 35.571445 35.567074 35.566583 35.569743 35.576739
35.587314 35.601642 35.619440 35.640868 35.665619 35.693837 35.725191 35.759812
35.797344 35.837903 35.881113 35.927074 35.975389 36.026141 36.078920 36.133790
36.190328 36.248583 36.308120 36.368973 36.430699 36.493319 36.556387 36.619909
36.683441 36.746976 36.810078 36.872727 36.934497 36.995362 37.054909 37.113105
37.169559 37.224232 37.276758 37.327095 37.374907 37.420152 37.462529 37.501996
37.538290 37.571374 37.601027 37.627216 37.649767 37.668652 37.683744 37.695026
37.702420 37.705916 37.705487 37.701132 37.692877 37.680730 37.664765 37.645001
37.621563 37.594475 37.563910 37.529901 37.492666 37.452241 37.408888 37.362647
37.313818 37.262442 37.208853 37.153093 37.095526 37.036190 36.975476 36.913416
36.850421 36.786518 36.722133 36.657283 36.592406 36.527508 36.463033 36.398975
36.335779 36.273427 36.212361 36.152548 36.094423 36.037937 35.983517 35.931097
35.881091 35.833416 35.788471 35.746157 35.706853 35.670445 35.637290 35.607261
35.580691 35.557438 35.537813 35.521658 35.509258 35.500446 35.495479 35.494177
35.496773 35.503075 35.513290 35.527216 35.545033 35.566533 35.591867 35.620822
35.653522 35.689749 35.729600 35.772854 35.819583 35.869562 35.922840 35.979190
36.038636 36.100952 36.166139 36.233972 36.304430 36.377289 36.452509 36.529869
36.609308 36.690610 36.773696 36.858354 36.944488 37.031893 37.120457 37.209981
37.300339 37.391341 37.482845 37.574672 37.666667
38.044444 37.948558 37.852854 37.757502 37.662694 37.568587 37.475384 37.383225
37.292324 37.202804 37.114886 37.028674 36.944399 36.862144 36.782146 36.704467
36.629349 36.556832 36.487161 36.420353 36.356656 36.296063 36.238820 36.184897
36.134540 36.087691 36.044594 36.005165 35.969646 35.937922 35.910231 35.886430
35.866751 35.851023 35.839467 35.831885 35.828488 35.829050 35.833770 35.842392
35.855106 35.871625 35.892125 35.916292 35.944287 35.975769 36.010885 36.049267
36.091044 36.135825 36.183723 36.234324 36.287724 36.343489 36.401696 36.461897
36.524149 36.587991 36.653465 36.720097 36.787913 36.856436 36.925675 36.995150
37.064857 37.134321 37.203524 37.272000 37.339719 37.406229 37.471493 37.535078
37.596939 37.656667 37.714214 37.769202 37.821579 37.871003 37.917422 37.960533