# vtk DataFile Version 3.0
Steady-state temperature (Jacobi)
ASCII
DATASET STRUCTURED_POINTS
DIMENSIONS 181 181 1
ORIGIN 0.0 0.0 0.0
SPACING 0.05 0.05 1.0
POINT_DATA 32761
SCALARS Temperature float 1
LOOKUP_TABLE default
32.000000 32.000000 32.000000 32.000000 32.000000 32.000000 32.000000 32.000000
32.000000 32.000000 32.000000 32.000000 32.000000 32.000000 32.000000 32.000000
32.000000 32.000000 32.000000 32.000000 32.000000 32.000000 32.000000 32.000000
32.000000 32.000000 32.000000 32.000000 32.000000 32.000000 32.000000 32.000000
32.000000 32.000000 32.000000 32.000000 32.000000 32.000000 32.000000 32.000000
32.000000 32.000000 32.000000 32.000000 32.000000 32.000000 32.000000 32.000000
32.000000 32.000000 32.000000 32.000000 32.000000 32.000000 32.000000 32.000000
32.000000 32.000000 32.000000 32.000000 32.000000 32.000000 32.000000 32.000000
32.000000 32.000000 32.000000 32.000000 32.000000 32.000000 32.000000 32.000000
32.000000 32.000000 32.000000 32.000000 32.000000 32.000000 32.000000 32.000000
32.000000 32.000000 32.000000 32.000000 32.000000 32.000000 32.000000 32.000000
32.000000 32.000000 32.000000 32.000000 32.000000 32.000000 32.000000 32.000000
32.000000 32.000000 32.000000 32.000000 32.000000 32.000000 32.000000 32.000000
32.000000 32.000000 32.000000 32.000000 32.000000 32.000000 32.000000 32.000000
32.000000 32.000000 32.000000 32.000000 32.000000 32.000000 32.000000 32.000000
32.000000 32.000000 32.000000 32.000000 32.000000 32.000000 32.000000 32.000000
32.000000 32.000000 32.000000 32.000000 32.000000 32.000000 32.000000 32.000000
32.000000 32.000000 32.000000 32.000000 32.000000 32.000000 32.000000 32.000000
32.000000 32.000000 32.000000 32.000000 32.000000 32.000000 32.000000 32.000000
32.000000 32.000000 32.000000 32.000000 32.000000 32.000000 32.000000 32.000000
32.000000 32.000000 32.000000 32.000000 32.000000 32.000000 32.000000 32.000000
32.000000 32.000000 32.000000 32.000000 32.000000 32.000000 32.000000 32.000000
32.000000 32.000000 32.000000 32.000000 32.000000
32.377778 32.381396 32.385021 32.388659 32.392316 32.395999 32.399712 32.403464
32.407259 32.411105 32.415005 32.418968 32.422996 32.427097 32.431274 32.435534
32.439880 32.444318 32.448850 32.453482 32.458216 32.463057 32.468006 32.473068
32.478242 32.483534 32.488942 32.494471 32.500117 32.505885 32.511772 32.517780
32.523905 32.530149 32.536508 32.542982 32.549565 32.556257 32.563053 32.569950
32.576942 32.584026 32.591193 32.598442 32.605763 32.613151 32.620597 32.628096
32.635637 32.643214 32.650815 32.658435 32.666059 32.673682 32.681289 32.688874
32.696422 32.703925 32.711368 32.718744 32.726036 32.733237 32.740330 32.747307
32.754153 32.760859 32.767408 32.773793 32.779998 32.786015 32.791828 32.797430
32.802806 32.807949 32.812845 32.817486 32.821862 32.825964 32.829782 32.833310
32.836539 32.839462 32.842073 32.844366 32.846336 32.847980 32.849292 32.850270
32.850912 32.851217 32.851183 32.850811 32.850102 32.849056 32.847677 32.845967
32.843931 32.841571 32.838894 32.835905 32.832612 32.829020 32.825138 32.820972
32.816534 32.811831 32.806874 32.801672 32.796236 32.790577 32.784706 32.778634
32.772374 32.765936 32.759335 32.752579 32.745685 32.738660 32.731522 32.724278
32.716944 32.709529 32.702048 32.694510 32.686930 32.679314 32.671679 32.664031
32.656385 32.648746 32.641129 32.633538 32.625988 32.618482 32.611033 32.603646
32.596330 32.589089 32.581934 32.574866 32.567896 32.561024 32.554258 32.547600
32.541057 32.534627 32.528319 32.522129 32.516064 32.510122 32.504307 32.498616
32.493052 32.487613 32.482300 32.477109 32.472042 32.467094 32.462266 32.457552
32.452952 32.448460 32.444076 32.439792 32.435608 32.431516 32.427515 32.423596
32.419758 32.415992 32.412296 32.408662 32.405085 32.401559 32.398077 32.394634
32.391224 32.387840 32.384475 32.381123 32.377778
32.755556 32.762797 32.770052 32.777332 32.784651 32.792020 32.799453 32.806961
32.814557 32.822252 32.830059 32.837988 32.846051 32.854256 32.862618 32.871142
32.879841 32.888721 32.897793 32.907062 32.916538 32.926225 32.936132 32.946260
32.956619 32.967208 32.978035 32.989097 33.000401 33.011943 33.023729 33.035750
33.048013 33.060508 33.073239 33.086193 33.099373 33.112766 33.126372 33.140174
33.154173 33.168349 33.182701 33.197208 33.211865 33.226652 33.241561 33.256569
33.271668 33.286832 33.302052 33.317302 33.332569 33.347826 33.363060 33.378241
33.393356 33.408374 33.423279 33.438042 33.452646 33.467059 33.481264 33.495231
33.508940 33.522363 33.535480 33.548261 33.560688 33.572732 33.584375 33.595589
33.606357 33.616652 33.626457 33.635750 33.644513 33.652725 33.660372 33.667435
33.673902 33.679755 33.684984 33.689575 33.693521 33.696811 33.699439 33.701398
33.702684 33.703294 33.703227 33.702482 33.701062 33.698968 33.696206 33.692783
33.688704 33.683980 33.678619 33.672635 33.666039 33.658848 33.651073 33.642734
33.633846 33.624430 33.614503 33.604088 33.593202 33.581872 33.570115 33.557960
33.545424 33.532536 33.519316 33.505793 33.491985 33.477925 33.463629 33.449129
33.434443 33.419601 33.404621 33.389532 33.374353 33.359110 33.343822 33.328514
33.313203 33.297914 33.282662 33.267471 33.252352 33.237331 33.222416 33.207631
33.192983 33.178492 33.164166 33.150023 33.136066 33.122314 33.108769 33.095445
33.082344 33.069479 33.056848 33.044462 33.032320 33.020430 33.008787 32.997400
32.986261 32.975377 32.964740 32.954354 32.944210 32.934310 32.924644 32.915212
32.906003 32.897016 32.888239 32.879668 32.871292 32.863105 32.855094 32.847254
32.839570 32.832036 32.824637 32.817365 32.810205 32.803149 32.796181 32.789291
32.782466 32.775693 32.768959 32.762251 32.755556
33.133333 33.144208 33.155101 33.166033 33.177022 33.188088 33.199249 33.210524
33.221929 33.233485 33.245207 33.257114 33.269220 33.281544 33.294098 33.306901
33.319961 33.333299 33.346919 33.360841 33.375069 33.389619 33.404493 33.419708
33.435261 33.451167 33.467423 33.484040 33.501013 33.518352 33.536048 33.554108
33.572521 33.591293 33.610408 33.629871 33.649662 33.669784 33.690215 33.710953
33.731975 33.753275 33.774828 33.796625 33.818638 33.840857 33.863248 33.885800
33.908478 33.931266 33.954126 33.977043 33.999975 34.022903 34.045786 34.068601
34.091306 34.113876 34.136268 34.158456 34.180394 34.202057 34.223398 34.244391
34.264989 34.285164 34.304871 34.324083 34.342755 34.360860 34.378354 34.395211
34.411391 34.426866 34.441601 34.455570 34.468738 34.481084 34.492576 34.503194
34.512912 34.521711 34.529569 34.536472 34.542402 34.547349 34.551298 34.554243
34.556176 34.557094 34.556992 34.555873 34.553738 34.550592 34.546441 34.541295
34.535165 34.528063 34.520008 34.511012 34.501100 34.490289 34.478606 34.466071
34.452715 34.438561 34.423644 34.407988 34.391631 34.374600 34.356935 34.338664
34.319828 34.300457 34.280594 34.260268 34.239524 34.218391 34.196913 34.175120
34.153057 34.130751 34.108248 34.085572 34.062769 34.039863 34.016897 33.993894
33.970895 33.947920 33.925011 33.902183 33.879477 33.856905 33.834505 33.812289
33.790289 33.768517 33.747002 33.725751 33.704793 33.684131 33.663790 33.643772
33.624100 33.604771 33.585804 33.567197 33.548965 33.531102 33.513621 33.496513
33.479789 33.463439 33.447469 33.431866 33.416636 33.401764 33.387252 33.373083
33.359258 33.345758 33.332580 33.319706 33.307130 33.294833 33.282807 33.271031
33.259495 33.248178 33.237070 33.226148 33.215398 33.204800 33.194339 33.183992
33.173743 33.163572 33.153460 33.143387 33.133333
33.511111 33.525632 33.540178 33.554775 33.569450 33.584225 33.599129 33.614183
33.629415 33.644844 33.660499 33.676397 33.692565 33.709020 33.725787 33.742880
33.760325 33.778132 33.796326 33.814914 33.833919 33.853345 33.873215 33.893529
33.914306 33.935544 33.957261 33.979449 34.002125 34.025277 34.048919 34.073036
34.097637 34.122705 34.148245 34.174237 34.200682 34.227555 34.254855 34.282552
34.310643 34.339093 34.367894 34.397010 34.426428 34.456107 34.486032 34.516158
34.546467 34.576909 34.607465 34.638081 34.668733 34.699367 34.729954 34.760439
34.790790 34.820948 34.850883 34.880532 34.909861 34.938810 34.967343 34.995398
35.022937 35.049901 35.076252 35.101929 35.126896 35.151095 35.174488 35.197021
35.218656 35.239343 35.259048 35.277721 35.295332 35.311836 35.327205 35.341400
35.354396 35.366159 35.376669 35.385898 35.393830 35.400443 35.405726 35.409664
35.412249 35.413476 35.413341 35.411845 35.408991 35.404784 35.399234 35.392354
35.384156 35.374662 35.363889 35.351864 35.338609 35.324156 35.308532 35.291775
35.273915 35.254995 35.235047 35.214120 35.192248 35.169484 35.145863 35.121442
35.096257 35.070367 35.043809 35.016644 34.988910 34.960667 34.931954 34.902831
34.873335 34.843528 34.813445 34.783146 34.752664 34.722059 34.691360 34.660627
34.629886 34.599193 34.568572 34.538077 34.507729 34.477577 34.447640 34.417964
34.388564 34.359483 34.330731 34.302348 34.274341 34.246746 34.219566 34.192832
34.166545 34.140732 34.115391 34.090543 34.066183 34.042329 34.018973 33.996130
33.973787 33.951954 33.930619 33.909786 33.889440 33.869583 33.850196 33.831279
33.812810 33.794785 33.777182 33.759994 33.743196 33.726777 33.710713 33.694990
33.679582 33.664473 33.649636 33.635053 33.620697 33.606546 33.592574 33.578759
33.565072 33.551491 33.537987 33.524536 33.511111
33.888889 33.907074 33.925291 33.943572 33.961949 33.980455 33.999119 34.017974
34.037048 34.056374 34.075978 34.095892 34.116138 34.136750 34.157747 34.179160
34.201005 34.223313 34.246096 34.269383 34.293183 34.317522 34.342405 34.367857
34.393877 34.420488 34.447686 34.475489 34.503889 34.532902 34.562512 34.592735
34.623549 34.654964 34.686957 34.719532 34.752659 34.786340 34.820540 34.855257
34.890449 34.926111 34.962197 34.998695 35.035555 35.072762 35.110260 35.148029
35.186011 35.224180 35.262473 35.300861 35.339278 35.377691 35.416030 35.454258
35.492303 35.530125 35.567650 35.604836 35.641605 35.677915 35.713687 35.748877
35.783407 35.817231 35.850272 35.882484 35.913792 35.944150 35.973487 36.001756
36.028890 36.054845 36.079558 36.102988 36.125076 36.145785 36.165062 36.182874
36.199176 36.213937 36.227121 36.238703 36.248653 36.256952 36.263579 36.268521
36.271765 36.273305 36.273137 36.271260 36.267680 36.262402 36.255441 36.246808
36.236526 36.224613 36.211101 36.196012 36.179386 36.161252 36.141656 36.120632
36.098231 36.074493 36.049476 36.023221 35.995792 35.967233 35.937613 35.906976
35.875395 35.842918 35.809618 35.775543 35.740770 35.705345 35.669346 35.632819
35.595843 35.558460 35.520749 35.482751 35.444543 35.406163 35.367687 35.329149
35.290621 35.252136 35.213762 35.175527 35.137497 35.099695 35.062183 35.024980
34.988143 34.951687 34.915664 34.880086 34.844999 34.810409 34.776360 34.742852
34.709923 34.677572 34.645828 34.614687 34.584175 34.554282 34.525029 34.496403
34.468420 34.441062 34.414341 34.388237 34.362756 34.337875 34.313597 34.289895
34.266766 34.244183 34.222140 34.200605 34.179570 34.159001 34.138884 34.119187
34.099892 34.080965 34.062385 34.044118 34.026139 34.008414 33.990917 33.973613
33.956472 33.939461 33.922549 33.905703 33.888889
34.266667 34.288539 34.310450 34.332437 34.354542 34.376798 34.399249 34.421925
34.444870 34.468112 34.491695 34.515644 34.540002 34.564791 34.590052 34.615804
34.642087 34.668917 34.696329 34.724337 34.752974 34.782248 34.812191 34.842804
34.874116 34.906125 34.938856 34.972300 35.006480 35.041381 35.077020 35.113378
35.150468 35.188264 35.226774 35.265967 35.305846 35.346373 35.387547 35.429322
35.471693 35.514609 35.558059 35.601984 35.646370 35.691152 35.736309 35.781772
35.827514 35.873462 35.919583 35.965799 36.012072 36.058322 36.104504 36.150535
36.196368 36.241914 36.287123 36.331906 36.376209 36.419940 36.463045 36.505431
36.547042 36.587786 36.627605 36.666410 36.704144 36.740718 36.776078 36.810138
36.842844 36.874119 36.903909 36.932141 36.958769 36.983724 37.006965 37.028430
37.048084 37.065874 37.081769 37.095728 37.107725 37.117728 37.125719 37.131676
37.135588 37.137446 37.137244 37.134983 37.130667 37.124307 37.115915 37.105512
37.093116 37.078761 37.062471 37.044289 37.024246 37.002394 36.978772 36.953438
36.926436 36.897833 36.867678 36.836044 36.802984 36.768576 36.732875 36.695967
36.657907 36.618783 36.578653 36.537608 36.495705 36.453037 36.409661 36.365670
36.321118 36.276099 36.230666 36.184910 36.138881 36.092669 36.046320 35.999921
35.953515 35.907183 35.860965 35.814939 35.769138 35.723637 35.678463 35.633686
35.589328 35.545454 35.502079 35.459264 35.417019 35.375397 35.334404 35.294087
35.254446 35.215522 35.177310 35.139845 35.103117 35.067155 35.031945 34.997509
34.963829 34.930921 34.898762 34.867363 34.836697 34.806771 34.777554 34.749046
34.721215 34.694054 34.667529 34.641629 34.616318 34.591580 34.567376 34.543687
34.520472 34.497709 34.475356 34.453386 34.431757 34.410439 34.389390 34.368577
34.347958 34.327498 34.307154 34.286891 34.266667
34.644444 34.670031 34.695662 34.721385 34.747242 34.773280 34.799541 34.826072
34.852910 34.880105 34.907690 34.935713 34.964204 34.993210 35.022759 35.052894
35.083639 35.115037 35.147103 35.179882 35.213382 35.247644 35.282673 35.318504
35.355138 35.392605 35.430900 35.470051 35.510043 35.550900 35.592603 35.635170
35.678573 35.722826 35.767895 35.813787 35.860461 35.907919 35.956112 36.005036
36.054635 36.104899 36.155765 36.207216 36.259182 36.311640 36.364514 36.417775
36.471340 36.525174 36.579188 36.633340 36.687538 36.741735 36.795832 36.849778
36.903470 36.956852 37.009819 37.062312 37.114222 37.165487 37.215998 37.265690
37.314455 37.362226 37.408896 37.454397 37.498626 37.541516 37.582965 37.622909
37.661252 37.697931 37.732857 37.765972 37.797192 37.826464 37.853715 37.878895
37.901941 37.922811 37.941451 37.957827 37.971896 37.983632 37.993004 37.999994
38.004583 38.006764 38.006528 38.003877 37.998817 37.991358 37.981518 37.969315
37.954781 37.937943 37.918843 37.897515 37.874015 37.848385 37.820688 37.790974
37.759318 37.725772 37.690420 37.653321 37.614566 37.574216 37.532369 37.489090
37.444481 37.398607 37.351576 37.303453 37.254348 37.204327 37.153499 37.101931
37.049731 36.996963 36.943735 36.890108 36.836187 36.782030 36.727740 36.673369
36.619016 36.564729 36.510602 36.456677 36.403044 36.349738 36.296845 36.244392
36.192459 36.141068 36.090291 36.040144 35.990693 35.941948 35.893967 35.846753
35.800358 35.754779 35.710060 35.666192 35.623213 35.581109 35.539908 35.499593
35.460185 35.421660 35.384034 35.347278 35.311402 35.276372 35.242191 35.208823
35.176264 35.144475 35.113446 35.083134 35.053525 35.024574 34.996261 34.968539
34.941383 34.914746 34.888597 34.862889 34.837588 34.812644 34.788021 34.763669
34.739549 34.715610 34.691812 34.668105 34.644444
35.022222 35.051554 35.080938 35.110425 35.140069 35.169918 35.200026 35.230439
35.261212 35.292385 35.324014 35.356137 35.388808 35.422059 35.455944 35.490489
35.525748 35.561742 35.598519 35.636097 35.674521 35.713801 35.753981 35.795062
35.837085 35.880045 35.923978 35.968870 36.014753 36.061606 36.109455 36.158272
36.208076 36.258832 36.310551 36.363191 36.416758 36.471199 36.526513 36.582642
36.639576 36.697247 36.755640 36.814679 36.874342 36.934544 36.995255 37.056385
37.117896 37.179689 37.241722 37.303889 37.366140 37.428365 37.490507 37.552450
37.614133 37.675437 37.736294 37.796582 37.856231 37.915116 37.973163 38.030248
38.086294 38.141178 38.194821 38.247103 38.297945 38.347230 38.394882 38.440786
38.484870 38.527027 38.567186 38.605248 38.641149 38.674797 38.706135 38.735082
38.761586 38.785579 38.807018 38.825845 38.842028 38.855522 38.866302 38.874340
38.879620 38.882128 38.881859 38.878813 38.872996 38.864422 38.853106 38.839079
38.822366 38.803010 38.781045 38.756530 38.729507 38.700046 38.668199 38.634046
38.597647 38.559092 38.518447 38.475811 38.431256 38.384888 38.336782 38.287052
38.235774 38.183068 38.129011 38.073726 38.017292 37.959831 37.901422 37.842191
37.782211 37.721608 37.660453 37.598870 37.536926 37.474741 37.412379 37.349955
37.287527 37.225207 37.163045 37.101147 37.039559 36.978379 36.917645 36.857451
36.797826 36.738856 36.680564 36.623028 36.566263 36.510341 36.455268 36.401107
36.347859 36.295578 36.244258 36.193945 36.144626 36.096339 36.049064 36.002832
35.957617 35.913441 35.870274 35.828129 35.786972 35.746808 35.707598 35.669342
35.631995 35.595550 35.559960 35.525210 35.491250 35.458061 35.425589 35.393809
35.362667 35.332131 35.302145 35.272674 35.243661 35.215066 35.186832 35.158915
35.131258 35.103814 35.076528 35.049349 35.022222
35.400000 35.433113 35.466285 35.499575 35.533039 35.566738 35.600726 35.635064
35.669801 35.704999 35.740704 35.776977 35.813857 35.851406 35.889658 35.928671
35.968475 36.009126 36.050646 36.093090 36.136471 36.180840 36.226206 36.272614
36.320064 36.368598 36.418207 36.468928 36.520743 36.573685 36.627725 36.682890
36.739144 36.796505 36.854928 36.914424 36.974940 37.036478 37.098976 37.162428
37.226762 37.291965 37.357956 37.424714 37.492147 37.560227 37.628855 37.697992
37.767532 37.837428 37.907567 37.977894 38.048289 38.118690 38.188970 38.259062
38.328832 38.398208 38.467053 38.535288 38.602775 38.669430 38.735113 38.799738
38.863164 38.925304 38.986019 39.045219 39.102770 39.158583 39.212528 39.264518
39.314429 39.362179 39.407650 39.450766 39.491419 39.529538 39.565027 39.597823
39.627841 39.655026 39.679308 39.700642 39.718971 39.734263 39.746475 39.755585
39.761567 39.764412 39.764109 39.760660 39.754073 39.744361 39.731547 39.715656
39.696729 39.674801 39.649928 39.622156 39.591555 39.558181 39.522119 39.483433
39.442219 39.398549 39.352531 39.304242 39.253802 39.201290 39.146835 39.090521
39.032481 38.972803 38.911624 38.849033 38.785170 38.720123 38.654033 38.586988
38.519130 38.450540 38.381361 38.311670 38.241607 38.171244 38.100716 38.030091
37.959498 37.888998 37.818715 37.748702 37.679075 37.609882 37.541230 37.473159
37.405768 37.339089 37.273213 37.208162 37.144019 37.080799 37.018575 36.957352
36.897196 36.838104 36.780132 36.723269 36.667562 36.612994 36.559601 36.507359
36.456296 36.406382 36.357636 36.310020 36.263547 36.218172 36.173901 36.130684
36.088518 36.047350 36.007168 35.967918 35.929579 35.892093 35.855435 35.819543
35.784386 35.749900 35.716049 35.682768 35.650015 35.617725 35.585851 35.554328
35.523106 35.492119 35.461313 35.430626 35.400000
35.777778 35.814712 35.851712 35.888842 35.926170 35.963756 36.001670 36.039967
36.078719 36.117977 36.157811 36.198267 36.239415 36.281296 36.323977 36.367492
36.411908 36.457252 36.503586 36.550932 36.599347 36.648844 36.699477 36.751252
36.804217 36.858367 36.913747 36.970342 37.028191 37.087269 37.147608 37.209174
37.271990 37.336013 37.401259 37.467673 37.535263 37.603964 37.673776 37.744623
37.816495 37.889306 37.963038 38.037595 38.112948 38.188993 38.265690 38.342926
38.420653 38.498749 38.577156 38.655744 38.734448 38.813130 38.891717 38.970064
39.048092 39.125651 39.202654 39.278949 39.354443 39.428981 39.502468 39.574745
39.645716 39.715224 39.783169 39.849398 39.913811 39.976257 40.036641 40.094817
40.150691 40.204128 40.255038 40.303294 40.348813 40.391481 40.431222 40.467934
40.501550 40.531984 40.559179 40.583065 40.603595 40.620717 40.634397 40.644598
40.651302 40.654489 40.654153 40.650294 40.642920 40.632049 40.617701 40.599914
40.578720 40.554175 40.526323 40.495237 40.460973 40.423619 40.383242 40.339945
40.293802 40.244931 40.193414 40.139379 40.082916 40.024162 39.963211 39.900209
39.835253 39.768494 39.700033 39.630024 39.558568 39.485821 39.411884 39.336913
39.261005 39.184318 39.106943 39.029035 38.950682 38.872034 38.793172 38.714242
38.635318 38.556539 38.477971 38.399746 38.321923 38.244625 38.167901 38.091867
38.016562 37.942093 37.868489 37.795848 37.724190 37.653601 37.584094 37.515744
37.448555 37.382591 37.317848 37.254380 37.192172 37.131271 37.071653 37.013353
36.956343 36.900646 36.846226 36.793098 36.741219 36.690596 36.641179 36.592967
36.545903 36.499978 36.455133 36.411349 36.368563 36.326749 36.285841 36.245807
36.206576 36.168111 36.130340 36.093218 36.056675 36.020658 35.985097 35.949936
35.915103 35.880539 35.846173 35.811942 35.777778
36.155556 36.196354 36.237225 36.278242 36.319474 36.360997 36.402876 36.445187
36.487991 36.531366 36.575366 36.620067 36.665519 36.711798 36.758945 36.807034
36.856100 36.906213 36.957401 37.009730 37.063220 37.117932 37.173877 37.231113
37.289638 37.349506 37.410705 37.473282 37.537216 37.602545 37.669239 37.737326
37.806766 37.877579 37.949713 38.023180 38.097915 38.173922 38.251124 38.329514
38.409006 38.489581 38.571142 38.653660 38.737026 38.821203 38.906069 38.991578
39.077597 39.164070 39.250855 39.337887 39.425015 39.512164 39.599176 39.685967
39.772374 39.858305 39.943592 40.028135 40.111763 40.194373 40.275789 40.355906
40.434547 40.511604 40.586904 40.660335 40.731730 40.800978 40.867915 40.932435
40.994383 41.053654 41.110103 41.163634 41.214112 41.261448 41.305522 41.346255
41.383540 41.417310 41.447476 41.473982 41.496758 41.515759 41.530937 41.542260
41.549699 41.553239 41.552870 41.548592 41.540415 41.528356 41.512444 41.492711
41.469206 41.441975 41.411087 41.376600 41.338603 41.297165 41.252391 41.204362
41.153200 41.098992 41.041876 40.981947 40.919353 40.854197 40.786636 40.716777
40.644786 40.570771 40.494904 40.417297 40.338122 40.257490 40.175578 40.092493
40.008410 39.923435 39.837741 39.751426 39.664662 39.577540 39.490226 39.402804
39.315435 39.228193 39.141232 39.054618 38.968494 38.882918 38.798023 38.713858
38.630546 38.548125 38.466706 38.386319 38.307064 38.228958 38.152092 38.076473
38.002180 37.929210 37.857630 37.787428 37.718660 37.651304 37.585406 37.520935
37.457925 37.396338 37.336197 37.277456 37.220128 37.164162 37.109559 37.056261
37.004261 36.953497 36.903951 36.855557 36.808289 36.762075 36.716883 36.672638
36.629301 36.586793 36.545069 36.504048 36.463680 36.423883 36.384599 36.345749
36.307270 36.269082 36.231117 36.193299 36.155556
36.533333 36.578044 36.622835 36.667784 36.712972 36.758475 36.804374 36.850741
36.897658 36.945190 36.993420 37.042407 37.092234 37.142950 37.194639 37.247341
37.301138 37.356062 37.412190 37.469547 37.528204 37.588178 37.649534 37.712278
37.776471 37.842107 37.909240 37.977854 38.047994 38.119634 38.192810 38.267484
38.343683 38.421356 38.500522 38.581117 38.663149 38.746542 38.831294 38.917315
39.004593 39.093026 39.182589 39.273169 39.364729 39.457144 39.550367 39.644260
39.738765 39.833734 39.929097 40.024696 40.120451 40.216195 40.311839 40.407208
40.502203 40.596643 40.690422 40.783353 40.875324 40.966145 41.055699 41.143794
41.230309 41.315053 41.397905 41.478675 41.557242 41.633422 41.707094 41.778084
41.846272 41.911495 41.973640 42.032553 42.088131 42.140233 42.188765 42.233603
42.274664 42.311841 42.345065 42.374248 42.399334 42.420257 42.436977 42.449447
42.457644 42.461546 42.461143 42.456437 42.447436 42.434163 42.416643 42.394922
42.369041 42.339068 42.305057 42.267098 42.225262 42.179654 42.130359 42.077503
42.021178 41.961528 41.898656 41.832716 41.763822 41.692140 41.617787 41.540941
41.461724 41.380318 41.296848 41.211503 41.124407 41.035750 40.945656 40.854317
40.761851 40.668449 40.574226 40.479368 40.383983 40.288255 40.192281 40.096241
40.000222 39.904396 39.808841 39.713719 39.619100 39.525135 39.431881 39.339480
39.247979 39.157507 39.068099 38.979873 38.892853 38.807145 38.722760 38.639792
38.558243 38.478192 38.399631 38.322628 38.247162 38.173290 38.100982 38.030281
37.961150 37.893620 37.827643 37.763240 37.700356 37.638999 37.579109 37.520683
37.463654 37.408009 37.353676 37.300632 37.248800 37.198148 37.148597 37.100105
37.052590 37.006004 36.960260 36.915304 36.871050 36.827434 36.784372 36.741795
36.699616 36.657763 36.616150 36.574702 36.533333
36.911111 36.959785 37.008546 37.057481 37.106674 37.156214 37.206180 37.256665
37.307739 37.359495 37.412000 37.465345 37.519589 37.574822 37.631094 37.688495
37.747067 37.806893 37.868006 37.930488 37.994361 38.059700 38.126517 38.194882
38.264796 38.336320 38.409444 38.484222 38.560631 38.638717 38.718443 38.799847
38.882878 38.967563 39.053840 39.141723 39.231137 39.322086 39.414479 39.508309
39.603472 39.699947 39.797619 39.896454 39.996321 40.097176 40.198875 40.301361
40.404478 40.508157 40.612230 40.716616 40.821137 40.925701 41.030121 41.134294
41.238026 41.341204 41.443627 41.545175 41.645643 41.744903 41.842748 41.939046
42.033589 42.126241 42.216796 42.305118 42.391004 42.474320 42.554869 42.632519
42.707084 42.778437 42.846403 42.910862 42.971653 43.028667 43.081758 43.130828
43.175751 43.216442 43.252795 43.284739 43.312191 43.335096 43.353394 43.367048
43.376022 43.380297 43.379861 43.374715 43.364871 43.350348 43.331184 43.307415
43.279103 43.246302 43.209099 43.167562 43.121799 43.071895 43.017979 42.960148
42.898549 42.833291 42.764538 42.692409 42.617081 42.538680 42.457395 42.373358
42.286768 42.197758 42.106534 42.013232 41.918060 41.821154 41.722724 41.622902
41.521899 41.419842 41.316937 41.213307 41.109155 41.004592 40.899816 40.794931
40.690126 40.585494 40.481215 40.377371 40.274131 40.171567 40.069837 39.968997
39.869196 39.770478 39.672977 39.576726 39.481844 39.388354 39.296361 39.205874
39.116985 39.029692 38.944074 38.860115 38.777881 38.697347 38.618565 38.541498
38.466186 38.392584 38.320716 38.250530 38.182038 38.115179 38.049954 37.986295
37.924191 37.863567 37.804403 37.746618 37.690181 37.635007 37.581056 37.528238
37.476506 37.425767 37.375965 37.327005 37.278825 37.231328 37.184445 37.138082
37.092160 37.046588 37.001282 36.956152 36.911111
37.288889 37.341581 37.394368 37.447341 37.500598 37.554226 37.608324 37.662973
37.718274 37.774302 37.831156 37.888905 37.947647 38.007442 38.068387 38.130532
38.193972 38.258748 38.324948 38.392605 38.461802 38.532559 38.604954 38.678995
38.754754 38.832226 38.911474 38.992481 39.075300 39.159901 39.246328 39.334536
39.424559 39.516338 39.609894 39.705154 39.802128 39.900727 40.000949 40.102690
40.205935 40.310564 40.416549 40.523757 40.632145 40.741566 40.851963 40.963175
41.075134 41.187663 41.300682 41.414002 41.527531 41.641069 41.754510 41.867647
41.980363 42.092443 42.203759 42.314092 42.423305 42.531174 42.637558 42.742228
42.845041 42.945768 43.044262 43.140300 43.233733 43.324344 43.411985 43.496449
43.577593 43.655219 43.729192 43.799329 43.865502 43.927546 43.985346 44.038752
44.087665 44.131956 44.171542 44.206317 44.236213 44.261151 44.281081 44.295950
44.305728 44.310387 44.309918 44.304322 44.293608 44.277804 44.256941 44.231074
44.200252 44.164556 44.124054 44.078853 44.029036 43.974733 43.916045 43.853122
43.786079 43.715084 43.640263 43.561802 43.479836 43.394565 43.306132 43.214746
43.120554 43.023777 42.924562 42.823136 42.719646 42.614322 42.507309 42.398836
42.289047 42.178167 42.066333 41.953767 41.840598 41.727042 41.613218 41.499336
41.385502 41.271918 41.158677 41.045971 40.933882 40.822586 40.712156 40.602754
40.494437 40.387357 40.281556 40.177171 40.074230 39.972857 39.873067 39.774967
39.678561 39.583939 39.491093 39.400100 39.310937 39.223669 39.138260 39.054760
38.973125 38.893388 38.815496 38.739469 38.665244 38.592830 38.522153 38.453210
38.385923 38.320273 38.256177 38.193605 38.132469 38.072728 38.014289 37.957104
37.901073 37.846139 37.792202 37.739197 37.687020 37.635599 37.584830 37.534635
37.484911 37.435572 37.386517 37.337655 37.288889
37.666667 37.723435 37.780304 37.837378 37.894753 37.952535 38.010816 38.069702
38.129279 38.189655 38.250908 38.313143 38.376432 38.440879 38.506545 38.573532
38.641890 38.711719 38.783058 38.856002 38.930577 39.006871 39.084902 39.164748
39.246414 39.329971 39.415409 39.502790 39.592091 39.683364 39.776569 39.871748
39.968846 40.067894 40.168821 40.271644 40.376276 40.482722 40.590879 40.700737
40.812177 40.925176 41.039598 41.155405 41.272445 41.390666 41.509902 41.630084
41.751032 41.872663 41.994783 42.117296 42.239995 42.362769 42.485402 42.607770
42.729646 42.850897 42.971287 43.090674 43.208815 43.325561 43.440667 43.553976
43.665242 43.774304 43.880919 43.984924 44.086080 44.184227 44.279131 44.370636
44.458520 44.542631 44.622762 44.698770 44.770464 44.837711 44.900340 44.958234
45.011241 45.059260 45.102164 45.139870 45.172276 45.199319 45.220926 45.237054
45.247657 45.252716 45.252214 45.246152 45.234546 45.217418 45.194813 45.166775
45.133378 45.094686 45.050801 45.001808 44.947833 44.888980 44.825400 44.757211
44.684587 44.607659 44.526621 44.441616 44.352852 44.260483 44.164731 44.065755
43.963787 43.858989 43.751604 43.641793 43.529802 43.415794 43.300015 43.182622
43.063864 42.943891 42.822948 42.701176 42.578816 42.456000 42.332959 42.209816
42.086792 41.963996 41.841640 41.719820 41.598733 41.478463 41.359193 41.240993
41.124031 41.008362 40.894140 40.781404 40.670291 40.560828 40.453137 40.347227
40.243205 40.141068 40.040906 39.942701 39.846528 39.752358 39.660248 39.570157
39.482129 39.396111 39.312130 39.230125 39.150108 39.072008 38.995826 38.921479
38.848955 38.778168 38.709090 38.641628 38.575745 38.511341 38.448369 38.386725
38.326350 38.267139 38.209023 38.151893 38.095675 38.040257 37.985556 37.931463
37.877887 37.824719 37.771864 37.719213 37.666667
38.044444 38.105350 38.166365 38.227597 38.289158 38.351149 38.413685 38.476861
38.540794 38.605570 38.671305 38.738079 38.806006 38.875155 38.945640 39.017521
39.090904 39.165840 39.242432 39.320718 39.400794 39.482685 39.566483 39.652197
39.739910 39.829620 39.921399 40.015228 40.111171 40.209194 40.309349 40.411585
40.515941 40.622351 40.730841 40.841327 40.953822 41.068224 41.184531 41.302624
41.422486 41.543982 41.667076 41.791618 41.917557 42.044725 42.173054 42.302361
42.432563 42.563460 42.694955 42.826832 42.958981 43.091172 43.223280 43.355066
43.486391 43.617005 43.746759 43.875397 44.002757 44.128580 44.252696 44.374842
44.494845 44.612440 44.727452 44.839619 44.948766 45.054636 45.157057 45.255783
45.350646 45.441412 45.527921 45.609957 45.687370 45.759962 45.827598 45.890102