# vtk DataFile Version 3.0
Steady-state temperature (Jacobi)
ASCII
DATASET STRUCTURED_POINTS
DIMENSIONS 181 181 1
ORIGIN 0.0 0.0 0.0
SPACING 0.05 0.05 1.0
POINT_DATA 32761
SCALARS Temperature float 1
LOOKUP_TABLE default
32.000000 32.000000 32.000000 32.000000 32.000000 32.000000 32.000000 32.000000
32.000000 32.000000 32.000000 32.000000 32.000000 32.000000 32.000000 32.000000
32.000000 32.000000 32.000000 32.000000 32.000000 32.000000 32.000000 32.000000
32.000000 32.000000 32.000000 32.000000 32.000000 32.000000 32.000000 32.000000
32.000000 32.000000 32.000000 32.000000 32.000000 32.000000 32.000000 32.000000
32.000000 32.000000 32.000000 32.000000 32.000000 32.000000 32.000000 32.000000
32.000000 32.000000 32.000000 32.000000 32.000000 32.000000 32.000000 32.000000
32.000000 32.000000 32.000000 32.000000 32.000000 32.000000 32.000000 32.000000
32.000000 32.000000 32.000000 32.000000 32.000000 32.000000 32.000000 32.000000
32.000000 32.000000 32.000000 32.000000 32.000000 32.000000 32.000000 32.000000
32.000000 32.000000 32.000000 32.000000 32.000000 32.000000 32.000000 32.000000
32.000000 32.000000 32.000000 32.000000 32.000000 32.000000 32.000000 32.000000
32.000000 32.000000 32.000000 32.000000 32.000000 32.000000 32.000000 32.000000
32.000000 32.000000 32.000000 32.000000 32.000000 32.000000 32.000000 32.000000
32.000000 32.000000 32.000000 32.000000 32.000000 32.000000 32.000000 32.000000
32.000000 32.000000 32.000000 32.000000 32.000000 32.000000 32.000000 32.000000
32.000000 32.000000 32.000000 32.000000 32.000000 32.000000 32.000000 32.000000
32.000000 32.000000 32.000000 32.000000 32.000000 32.000000 32.000000 32.000000
32.000000 32.000000 32.000000 32.000000 32.000000 32.000000 32.000000 32.000000
32.000000 32.000000 32.000000 32.000000 32.000000 32.000000 32.000000 32.000000
32.000000 32.000000 32.000000 32.000000 32.000000 32.000000 32.000000 32.000000
32.000000 32.000000 32.000000 32.000000 32.000000 32.000000 32.000000 32.000000
32.000000 32.000000 32.000000 32.000000 32.000000
32.377778 32.389450 32.401124 32.412801 32.424483 32.436170 32.447865 32.459568
32.471281 32.483006 32.494742 32.506492 32.518256 32.530035 32.541831 32.553642
32.565471 32.577317 32.589180 32.601060 32.612958 32.624873 32.636804 32.648751
32.660712 32.672687 32.684674 32.696672 32.708678 32.720690 32.732707 32.744725
32.756742 32.768754 32.780758 32.792751 32.804727 32.816684 32.828616 32.840519
32.852387 32.864215 32.875997 32.887727 32.899399 32.911006 32.922541 32.933997
32.945367 32.956643 32.967817 32.978880 32.989825 33.000642 33.011324 33.021860
33.032242 33.042460 33.052505 33.062368 33.072038 33.081506 33.090762 33.099796
33.108599 33.117161 33.125471 33.133522 33.141302 33.148802 33.156014 33.162929
33.169537 33.175831 33.181801 33.187441 33.192742 33.197698 33.202301 33.206546
33.210426 33.213936 33.217071 33.219827 33.222200 33.224185 33.225781 33.226986
33.227797 33.228213 33.228234 33.227860 33.227091 33.225929 33.224375 33.222433
33.220103 33.217391 33.214301 33.210836 33.207001 33.202803 33.198247 33.193340
33.188088 33.182499 33.176580 33.170339 33.163785 33.156926 33.149771 33.142329
33.134609 33.126621 33.118374 33.109878 33.101142 33.092177 33.082992 33.073597
33.064003 33.054218 33.044253 33.034117 33.023819 33.013370 33.002778 32.992053
32.981203 32.970237 32.959164 32.947991 32.936728 32.925380 32.913957 32.902465
32.890912 32.879303 32.867645 32.855945 32.844208 32.832439 32.820644 32.808828
32.796996 32.785151 32.773298 32.761440 32.749581 32.737724 32.725873 32.714029
32.702195 32.690373 32.678565 32.666773 32.654998 32.643241 32.631503 32.619785
32.608088 32.596411 32.584755 32.573119 32.561505 32.549910 32.538335 32.526779
32.515242 32.503721 32.492217 32.480728 32.469253 32.457790 32.446339 32.434897
32.423463 32.412036 32.400614 32.389195 32.377778
32.755556 32.778902 32.802251 32.825606 32.848970 32.872346 32.895737 32.919145
32.942572 32.966022 32.989497 33.012998 33.036528 33.060089 33.083681 33.107306
33.130965 33.154659 33.178388 33.202152 33.225950 33.249783 33.273648 33.297545
33.321471 33.345424 33.369402 33.393401 33.417417 33.441447 33.465485 33.489526
33.513564 33.537594 33.561608 33.585599 33.609559 33.633478 33.657349 33.681162
33.704905 33.728568 33.752139 33.775607 33.798959 33.822181 33.845260 33.868181
33.890930 33.913491 33.935847 33.957984 33.979883 34.001528 34.022901 34.043984
34.064758 34.085205 34.105306 34.125041 34.144392 34.163338 34.181861 34.199940
34.217556 34.234690 34.251321 34.267431 34.283001 34.298012 34.312446 34.326284
34.339510 34.352105 34.364054 34.375341 34.385951 34.395870 34.405083 34.413579
34.421345 34.428370 34.434645 34.440161 34.444909 34.448884 34.452079 34.454489
34.456112 34.456945 34.456987 34.456238 34.454699 34.452374 34.449264 34.445375
34.440714 34.435286 34.429099 34.422164 34.414489 34.406087 34.396968 34.387147
34.376636 34.365449 34.353603 34.341114 34.327997 34.314270 34.299950 34.285056
34.269606 34.253620 34.237115 34.220112 34.202631 34.184690 34.166310 34.147510
34.128310 34.108730 34.088789 34.068507 34.047902 34.026993 34.005800 33.984339
33.962630 33.940689 33.918532 33.896178 33.873642 33.850939 33.828084 33.805091
33.781976 33.758750 33.735427 33.712019 33.688538 33.664994 33.641398 33.617760
33.594088 33.570393 33.546681 33.522960 33.499237 33.475519 33.451811 33.428119
33.404447 33.380799 33.357180 33.333592 33.310038 33.286521 33.263043 33.239604
33.216206 33.192850 33.169535 33.146262 33.123031 33.099840 33.076688 33.053575
33.030498 33.007455 32.984446 32.961466 32.938514 32.915588 32.892684 32.869799
32.846930 32.824075 32.801230 32.778391 32.755556
33.133333 33.168356 33.203382 33.238418 33.273467 33.308534 33.343623 33.378738
33.413883 33.449062 33.484278 33.519534 33.554833 33.590178 33.625571 33.661014
33.696508 33.732054 33.767653 33.803306 33.839010 33.874766 33.910571 33.946424
33.982322 34.018261 34.054237 34.090245 34.126280 34.162336 34.198404 34.234478
34.270549 34.306607 34.342642 34.378643 34.414597 34.450493 34.486315 34.522051
34.557683 34.593196 34.628572 34.663794 34.698841 34.733695 34.768335 34.802739
34.836884 34.870748 34.904306 34.937535 34.970408 35.002901 35.034985 35.066635
35.097821 35.128518 35.158695 35.188324 35.217377 35.245823 35.273633 35.300778
35.327228 35.352954 35.377927 35.402118 35.425497 35.448038 35.469712 35.490492
35.510353 35.529267 35.547212 35.564162 35.580096 35.594991 35.608828 35.621587
35.633250 35.643801 35.653225 35.661509 35.668640 35.674609 35.679408 35.683028
35.685465 35.686716 35.686779 35.685654 35.683343 35.679850 35.675180 35.669339
35.662338 35.654185 35.644894 35.634478 35.622952 35.610333 35.596639 35.581889
35.566103 35.549304 35.531515 35.512758 35.493061 35.472447 35.450944 35.428579
35.405379 35.381374 35.356592 35.331062 35.304813 35.277876 35.250279 35.222053
35.193227 35.163831 35.133893 35.103443 35.072511 35.041122 35.009307 34.977091
34.944503 34.911567 34.878310 34.844755 34.810928 34.776851 34.742548 34.708038
34.673345 34.638487 34.603484 34.568354 34.533114 34.497781 34.462370 34.426897
34.391375 34.355817 34.320235 34.284641 34.249044 34.213455 34.177881 34.142332
34.106813 34.071332 34.035893 34.000503 33.965164 33.929880 33.894655 33.859489
33.824386 33.789345 33.754367 33.719453 33.684600 33.649808 33.615077 33.580402
33.545782 33.511215 33.476697 33.442224 33.407793 33.373400 33.339041 33.304711
33.270406 33.236120 33.201849 33.167589 33.133333
33.511111 33.557813 33.604521 33.651240 33.697978 33.744740 33.791531 33.838357
33.885224 33.932135 33.979096 34.026112 34.073185 34.120320 34.167520 34.214786
34.262122 34.309527 34.357004 34.404552 34.452171 34.499858 34.547613 34.595432
34.643311 34.691247 34.739232 34.787262 34.835328 34.883422 34.931536 34.979657
35.027775 35.075877 35.123950 35.171978 35.219946 35.267836 35.315630 35.363309
35.410851 35.458236 35.505440 35.552438 35.599206 35.645717 35.691943 35.737855
35.783424 35.828619 35.873407 35.917757 35.961633 36.005002 36.047828 36.090075
36.131706 36.172683 36.212968 36.252523 36.291308 36.329285 36.366415 36.402657
36.437973 36.472323 36.505668 36.537969 36.569188 36.599287 36.628230 36.655980
36.682502 36.707762 36.731727 36.754364 36.775644 36.795537 36.814017 36.831058
36.846635 36.860727 36.873315 36.884379 36.893904 36.901877 36.908286 36.913121
36.916376 36.918047 36.918131 36.916628 36.913541 36.908875 36.902637 36.894836
36.885484 36.874595 36.862185 36.848273 36.832878 36.816024 36.797734 36.778034
36.756951 36.734516 36.710757 36.685709 36.659404 36.631876 36.603161 36.573295
36.542317 36.510263 36.477172 36.443084 36.408037 36.372071 36.335226 36.297542
36.259058 36.219814 36.179848 36.139200 36.097908 36.056010 36.013542 35.970542
35.927045 35.883086 35.838699 35.793917 35.748772 35.703296 35.657517 35.611467
35.565171 35.518657 35.471951 35.425076 35.378057 35.330915 35.283670 35.236343
35.188952 35.141514 35.094046 35.046562 34.999075 34.951600 34.904147 34.856728
34.809350 34.762023 34.714754 34.667550 34.620416 34.573356 34.526375 34.479475
34.432657 34.385925 34.339277 34.292713 34.246233 34.199836 34.153518 34.107277
34.061110 34.015013 33.968982 33.923012 33.877098 33.831236 33.785418 33.739639
33.693893 33.648174 33.602475 33.556790 33.511111
33.888889 33.947274 34.005668 34.064076 34.122507 34.180968 34.239467 34.298009
34.356602 34.415253 34.473966 34.532747 34.591601 34.650533 34.709547 34.768645
34.827830 34.887104 34.946468 35.005922 35.065465 35.125096 35.184812 35.244609
35.304484 35.364430 35.424440 35.484507 35.544621 35.604772 35.664948 35.725136
35.785322 35.845490 35.905622 35.965701 36.025706 36.085616 36.145408 36.205057
36.264539 36.323825 36.382886 36.441693 36.500213 36.558413 36.616260 36.673716
36.730744 36.787307 36.843362 36.898871 36.953790 37.008076 37.061683 37.114568
37.166684 37.217983 37.268418 37.317941 37.366502 37.414053 37.460543 37.505925
37.550148 37.593163 37.634921 37.675373 37.714471 37.752169 37.788419 37.823175
37.856395 37.888035 37.918052 37.946408 37.973065 37.997985 38.021135 38.042482
38.061996 38.079650 38.095419 38.109280 38.121214 38.131202 38.139231 38.145289
38.149367 38.151460 38.151565 38.149682 38.145814 38.139968 38.132151 38.122378
38.110661 38.097019 38.081472 38.064042 38.044757 38.023642 38.000729 37.976051
37.949641 37.921537 37.891777 37.860402 37.827453 37.792974 37.757009 37.719604
37.680806 37.640663 37.599223 37.556534 37.512647 37.467611 37.421476 37.374291
37.326107 37.276972 37.226937 37.176049 37.124356 37.071907 37.018747 36.964922
36.910478 36.855457 36.799903 36.743856 36.687358 36.630447 36.573160 36.515534
36.457604 36.399403 36.340964 36.282316 36.223489 36.164509 36.105405 36.046198
35.986914 35.927573 35.868196 35.808801 35.749405 35.690025 35.630674 35.571366
35.512113 35.452924 35.393810 35.334778 35.275835 35.216987 35.158238 35.099591
35.041050 34.982615 34.924288 34.866067 34.807952 34.749940 34.692029 34.634215
34.576494 34.518861 34.461312 34.403839 34.346438 34.289100 34.231819 34.174587
34.117397 34.060241 34.003109 33.945995 33.888889
34.266667 34.336742 34.406826 34.476929 34.547059 34.617226 34.687437 34.757703
34.828029 34.898425 34.968897 35.039452 35.110096 35.180833 35.251670 35.322609
35.393655 35.464808 35.536071 35.607443 35.678925 35.750513 35.822205 35.893998
35.965884 36.037858 36.109912 36.182036 36.254219 36.326448 36.398711 36.470989
36.543268 36.615528 36.687748 36.759906 36.831979 36.903940 36.975763 37.047417
37.118873 37.190096 37.261053 37.331706 37.402019 37.471951 37.541461 37.610504
37.679038 37.747013 37.814384 37.881099 37.947109 38.012361 38.076802 38.140376
38.203028 38.264701 38.325339 38.384882 38.443272 38.500449 38.556355 38.610929
38.664112 38.715844 38.766066 38.814720 38.861748 38.907091 38.950696 38.992506
39.032468 39.070531 39.106644 39.140758 39.172829 39.202811 39.230665 39.256349
39.279830 39.301072 39.320046 39.336725 39.351084 39.363103 39.372764 39.380054
39.384961 39.387479 39.387605 39.385338 39.380684 39.373648 39.364242 39.352480
39.338381 39.321965 39.303256 39.282284 39.259078 39.233672 39.206103 39.176411
39.144636 39.110824 39.075020 39.037275 38.997637 38.956160 38.912897 38.867904
38.821237 38.772954 38.723112 38.671772 38.618992 38.564833 38.509354 38.452615
38.394678 38.335600 38.275442 38.214262 38.152117 38.089065 38.025162 37.960464
37.895023 37.828893 37.762124 37.694767 37.626870 37.558480 37.489642 37.420400
37.350795 37.280868 37.210657 37.140199 37.069528 36.998679 36.927680 36.856564
36.785356 36.714083 36.642769 36.571437 36.500106 36.428796 36.357524 36.286307
36.215157 36.144087 36.073109 36.002232 35.931463 35.860810 35.790279 35.719872
35.649593 35.579444 35.509425 35.439536 35.369775 35.300139 35.230626 35.161231
35.091948 35.022772 34.953697 34.884716 34.815819 34.747001 34.678251 34.609561
34.540921 34.472322 34.403753 34.335205 34.266667
34.644444 34.726216 34.807998 34.889801 34.971638 35.053517 35.135449 35.217445
35.299513 35.381663 35.463902 35.546240 35.628683 35.711237 35.793907 35.876700
35.959618 36.042664 36.125840 36.209146 36.292581 36.376144 36.459830 36.543636
36.627555 36.711579 36.795698 36.879903 36.964179 37.048514 37.132889 37.217288
37.301690 37.386074 37.470415 37.554688 37.638864 37.722915 37.806807 37.890507
37.973978 38.057183 38.140081 38.222629 38.304783 38.386496 38.467720 38.548404
38.628495 38.707940 38.786681 38.864662 38.941822 39.018100 39.093433 39.167758
39.241009 39.313120 39.384023 39.453650 39.521932 39.588801 39.654184 39.718015
39.780220 39.840733 39.899482 39.956399 40.011415 40.064465 40.115482 40.164401
40.211160 40.255699 40.297956 40.337878 40.375409 40.410497 40.443094 40.473154
40.500635 40.525497 40.547704 40.567226 40.584033 40.598100 40.609408 40.617940
40.623684 40.626631 40.626777 40.624124 40.618675 40.610438 40.599428 40.585660
40.569156 40.549941 40.528044 40.503496 40.476335 40.446601 40.414335 40.379585
40.342399 40.302830 40.260933 40.216764 40.170384 40.121853 40.071235 40.018594
39.963998 39.907513 39.849208 39.789153 39.727417 39.664070 39.599184 39.532828
39.465073 39.395989 39.325644 39.254109 39.181450 39.107734 39.033028 38.957395
38.880899 38.803601 38.725562 38.646839 38.567489 38.487568 38.407127 38.326218
38.244891 38.163190 38.081163 37.998851 37.916295 37.833533 37.750603 37.667537
37.584370 37.501130 37.417847 37.334544 37.251249 37.167980 37.084760 37.001606
36.918535 36.835561 36.752696 36.669952 36.587338 36.504862 36.422530 36.340346
36.258315 36.176436 36.094712 36.013141 35.931723 35.850452 35.769326 35.688338
35.607485 35.526757 35.446148 35.365649 35.285251 35.204945 35.124719 35.044564
34.964468 34.884420 34.804408 34.724420 34.644444
35.022222 35.115697 35.209184 35.302697 35.396247 35.489846 35.583508 35.677243
35.771061 35.864975 35.958992 36.053123 36.147376 36.241758 36.336276 36.430936
36.525741 36.620695 36.715800 36.811056 36.906464 37.002021 37.097722 37.193564
37.289538 37.385636 37.481848 37.578160 37.674559 37.771029 37.867550 37.964102
38.060663 38.157207 38.253708 38.350136 38.446459 38.542642 38.638650 38.734443
38.829980 38.925218 39.020109 39.114606 39.208658 39.302210 39.395209 39.487594
39.579307 39.670285 39.760464 39.849777 39.938155 40.025529 40.111827 40.196974
40.280897 40.363518 40.444762 40.524547 40.602797 40.679431 40.754369 40.827529
40.898833 40.968198 41.035547 41.100799 41.163875 41.224700 41.283197 41.339291
41.392911 41.443986 41.492449 41.538233 41.581278 41.621522 41.658911 41.693390
41.724912 41.753431 41.778906 41.801299 41.820579 41.836717 41.849689 41.859476
41.866064 41.869445 41.869612 41.866567 41.860315 41.850865 41.838233 41.822438
41.803504 41.781460 41.756340 41.728181 41.697024 41.662916 41.625906 41.586047
41.543397 41.498015 41.449965 41.399312 41.346124 41.290474 41.232432 41.172075
41.109478 41.044720 40.977879 40.909035 40.838268 40.765660 40.691291 40.615243
40.537595 40.458430 40.377825 40.295861 40.212614 40.128163 40.042581 39.955945
39.868324 39.779792 39.690415 39.600262 39.509396 39.417882 39.325779 39.233145
39.140037 39.046510 38.952612 38.858395 38.763903 38.669183 38.574274 38.479217
38.384047 38.288800 38.193507 38.098199 38.002902 37.907642 37.812442 37.717322
37.622300 37.527393 37.432616 37.337981 37.243499 37.149177 37.055024 36.961044
36.867241 36.773617 36.680171 36.586904 36.493813 36.400894 36.308142 36.215552
36.123116 36.030826 35.938673 35.846648 35.754740 35.662937 35.571229 35.479601
35.388042 35.296538 35.205076 35.113642 35.022222
35.400000 35.505187 35.610388 35.715617 35.820890 35.926220 36.031619 36.137103
36.242682 36.348370 36.454177 36.560114 36.666189 36.772413 36.878793 36.985334
37.092042 37.198922 37.305974 37.413202 37.520603 37.628175 37.735915 37.843817
37.951873 38.060073 38.168406 38.276858 38.385413 38.494053 38.602756 38.711500
38.820260 38.929008 39.037712 39.146341 39.254858 39.363225 39.471400 39.579341
39.687000 39.794329 39.901275 40.007784 40.113797 40.219256 40.324097 40.428255
40.531661 40.634247 40.735939 40.836661 40.936337 41.034887 41.132230 41.228283
41.322961 41.416178 41.507846 41.597876 41.686179 41.772665 41.857242 41.939819
42.020305 42.098609 42.174641 42.248310 42.319528 42.388207 42.454262 42.517607
42.578161 42.635844 42.690579 42.742292 42.790912 42.836372 42.878606 42.917557
42.953166 42.985385 43.014165 43.039465 43.061247 43.079479 43.094135 43.105192
43.112636 43.116454 43.116642 43.113201 43.106135 43.095457 43.081184 43.063336
43.041943 43.017037 42.988655 42.956841 42.921641 42.883109 42.841300 42.796274
42.748098 42.696837 42.642566 42.585357 42.525289 42.462442 42.396900 42.328746
42.258068 42.184954 42.109493 42.031775 41.951893 41.869937 41.785999 41.700172
41.612546 41.523213 41.432263 41.339785 41.245868 41.150597 41.054060 40.956338
40.857516 40.757670 40.656881 40.555223 40.452770 40.349591 40.245757 40.141332
40.036380 39.930961 39.825134 39.718952 39.612470 39.505735 39.398796 39.291695
39.184476 39.077175 38.969830 38.862473 38.755135 38.647845 38.540627 38.433506
38.326501 38.219631 38.112912 38.006358 37.899981 37.793789 37.687792 37.581993
37.476398 37.371008 37.265823 37.160843 37.056064 36.951481 36.847090 36.742883
36.638853 36.534989 36.431283 36.327721 36.224293 36.120985 36.017784 35.914676
35.811646 35.708679 35.605759 35.502872 35.400000
35.777778 35.894685 36.011609 36.128566 36.245571 36.362640 36.479789 36.597032
36.714383 36.831857 36.949466 37.067221 37.185134 37.303215 37.421472 37.539912
37.658542 37.777365 37.896387 38.015606 38.135023 38.254636 38.374441 38.494431
38.614599 38.734932 38.855420 38.976046 39.096794 39.217642 39.338569 39.459548
39.580552 39.701549 39.822508 39.943389 40.064154 40.184761 40.305163 40.425313
40.545158 40.664643 40.783712 40.902302 41.020351 41.137791 41.254552 41.370561
41.485744 41.600020 41.713310 41.825529 41.936591 42.046408 42.154889 42.261940
42.367468 42.471375 42.573565 42.673936 42.772390 42.868825 42.963139 43.055230
43.144996 43.232334 43.317144 43.399324 43.478776 43.555400 43.629100 43.699782
43.767354 43.831725 43.892810 43.950526 44.004791 44.055532 44.102675 44.146154
44.185905 44.221872 44.254001 44.282245 44.306563 44.326917 44.343280 44.355624
44.363934 44.368196 44.368405 44.364561 44.356671 44.344748 44.328810 44.308883
44.284997 44.257189 44.225502 44.189984 44.150689 44.107674 44.061003 44.010744
43.956970 43.899758 43.839187 43.775343 43.708311 43.638183 43.565051 43.489010
43.410158 43.328594 43.244418 43.157731 43.068635 42.977235 42.883630 42.787927
42.690225 42.590628 42.489236 42.386149 42.281466 42.175284 42.067698 41.958802
41.848686 41.737442 41.625153 41.511907 41.397784 41.282863 41.167220 41.050929
40.934059 40.816679 40.698853 40.580642 40.462104 40.343295 40.224266 40.105066
39.985742 39.866337 39.746888 39.627436 39.508012 39.388649 39.269373 39.150212
39.031186 38.912318 38.793624 38.675121 38.556819 38.438730 38.320861 38.203221
38.085810 37.968633 37.851689 37.734976 37.618491 37.502229 37.386183 37.270345
37.154707 37.039257 36.923983 36.808874 36.693916 36.579093 36.464390 36.349793
36.235283 36.120844 36.006459 35.892109 35.777778
36.155556 36.284194 36.412851 36.541545 36.670292 36.799112 36.928020 37.057035
37.186171 37.315444 37.444867 37.574456 37.704221 37.834175 37.964326 38.094684
38.225255 38.356045 38.487056 38.618292 38.749751 38.881433 39.013331 39.145440
39.277751 39.410253 39.542932 39.675771 39.808751 39.941852 40.075046 40.208308
40.341606 40.474907 40.608173 40.741365 40.874438 41.007348 41.140042 41.272468
41.404569 41.536285 41.667551 41.798302 41.928466 42.057971 42.186738 42.314688
42.441736 42.567797 42.692780 42.816593 42.939141 43.060326 43.180046 43.298201
43.414684 43.529389 43.642207 43.753028 43.861741 43.968235 44.072394 44.174108
44.273261 44.369742 44.463436 44.554233 44.642020 44.726691 44.808136 44.886251
44.960933 45.032084 45.099605 45.163406 45.223396 45.279492 45.331614 45.379686
45.423639 45.463408 45.498935 45.530168 45.557058 45.579567 45.597661 45.611312
45.620500 45.625213 45.625443 45.621190 45.612463 45.599275 45.581647 45.559608
45.533192 45.502439 45.467398 45.428122 45.384670 45.337108 45.285505 45.229939
45.170489 45.107241 45.040285 44.969714 44.895625 44.818118 44.737298 44.653269
44.566140 44.476020 44.383023 44.287259 44.188842 44.087887 43.984508 43.878818
43.770932 43.660962 43.549020 43.435217 43.319663 43.202465 43.083728 42.963555
42.842049 42.719306 42.595425 42.470497 42.344613 42.217860 42.090323 41.962081
41.833214 41.703794 41.573894 41.443579 41.312916 41.181964 41.050780 40.919419
40.787931 40.656362 40.524757 40.393155 40.261596 40.130111 39.998733 39.867488
39.736403 39.605498 39.474793 39.344304 39.214046 39.084028 38.954261 38.824750
38.695500 38.566512 38.437786 38.309320 38.181110 38.053149 37.925432 37.797947
37.670686 37.543636 37.416784 37.290115 37.163614 37.037265 36.911051 36.784954
36.658955 36.533035 36.407175 36.281355 36.155556
36.533333 36.673714 36.814114 36.954555 37.095057 37.235638 37.376319 37.517117
37.658050 37.799135 37.940390 38.081827 38.223461 38.365305 38.507370 38.649666
38.792199 38.934977 39.078004 39.221282 39.364811 39.508589 39.652613 39.796874
39.941365 40.086072 40.230982 40.376076 40.521334 40.666733 40.812246 40.957842
41.103489 41.249150 41.394785 41.540349 41.685797 41.831077 41.976135 42.120912
42.265347 42.409373 42.552922 42.695919 42.838289 42.979949 43.120817 43.260804
43.399819 43.537766 43.674548 43.810062 43.944206 44.076870 44.207945 44.337317
44.464872 44.590492 44.714059 44.835449 44.954543 45.071215 45.185342 45.296798
45.405460 45.511200 45.613898 45.713426 45.809666 45.902495 45.991795 46.077450
46.159348 46.237377 46.311432 46.381409 46.447213 46.508747 46.565925 46.618663
46.666884 46.710517 46.749496 46.783765 46.813270 46.837968 46.857821 46.872800
46.882882 46.888051 46.888301 46.883633 46.874054 46.859580 46.840235 46.816049
46.787060 46.753315 46.714865 46.671769 46.624094 46.571912 46.515300 46.454343
46.389129 46.319754 46.246315 46.168917 46.087666 46.002675 45.914055 45.821925
45.726404 45.627614 45.525676 45.420716 45.312858 45.202228 45.088952 44.973156
44.854964 44.734502 44.611891 44.487255 44.360712 44.232382 44.102379 43.970819
43.837811 43.703465 43.567884 43.431172 43.293427 43.154745 43.015218 42.874935
42.733979 42.592434 42.450375 42.307878 42.165011 42.021841 41.878431 41.734839
41.591120 41.447326 41.303503 41.159697 41.015946 40.872289 40.728757 40.585383
40.442192 40.299209 40.156453 40.013942 39.871692 39.729713 39.588016 39.446606
39.305488 39.164663 39.024131 38.883890 38.743933 38.604255 38.464848 38.325700
38.186800 38.048135 37.909689 37.771447 37.633392 37.495506 37.357769 37.220162
37.082664 36.945254 36.807910 36.670610 36.533333
36.911111 37.063244 37.215400 37.367600 37.519867 37.672222 37.824687 37.977282
38.130026 38.282939 38.436038 38.589341 38.742862 38.896616 39.050614 39.204868
39.359387 39.514178 39.669246 39.824594 39.980223 40.136131 40.292313 40.448763
40.605471 40.762425 40.919608 41.077003 41.234587 41.392335 41.550219 41.708207
41.866262 42.024345 42.182414 42.340421 42.498314 42.656040 42.813539 42.970749
43.127601 43.284026 43.439947 43.595285 43.749957 43.903875 44.056947 44.209078
44.360168 44.510115 44.658810 44.806145 44.952003 45.096269 45.238822 45.379539
45.518294 45.654960 45.789404 45.921497 46.051102 46.178087 46.302313 46.423646
46.541947 46.657080 46.768909 46.877300 46.982116 47.083228 47.180504 47.273818
47.363045 47.448064 47.528758 47.605016 47.676728 47.743793 47.806112 47.863596
47.916159 47.963723 48.006215 48.043573 48.075740 48.102665 48.124310 48.140639
48.151629 48.157264 48.157535 48.152442 48.141996 48.126213 48.105118 48.078746
48.047140 48.010348 47.968428 47.921446 47.869474 47.812591 47.750884 47.684444
47.613370 47.537764 47.457737 47.373401 47.284874 47.192278 47.095739 46.995384
46.891345 46.783754 46.672746 46.558458 46.441027 46.320589 46.197284 46.071247
45.942618 45.811530 45.678120 45.542520 45.404861 45.265272 45.123881 44.980809
44.836181 44.690111 44.542717 44.394107 44.244392 44.093674 43.942054 43.789627
43.636487 43.482721 43.328414 43.173645 43.018491 42.863022 42.707308 42.551410
42.395390 42.239301 42.083195 41.927120 41.771120 41.615232 41.459496 41.303940
41.148597 40.993488 40.838639 40.684066 40.529785 40.375809 40.222148 40.068807
39.915792 39.763103 39.610740 39.458698 39.306974 39.155557 39.004440 38.853610
38.703055 38.552759 38.402705 38.252877 38.103255 37.953819 37.804548 37.655420
37.506412 37.357501 37.208664 37.059875 36.911111
37.288889 37.452786 37.616708 37.780679 37.944724 38.108865 38.273128 38.437533
38.602103 38.766859 38.931820 39.097005 39.262431 39.428114 39.594067 39.760303
39.926832 40.093661 40.260799 40.428246 40.596007 40.764077 40.932455 41.101131
41.270098 41.439341 41.608845 41.778589 41.948551 42.118704 42.289017 42.459456
42.629984 42.800557 42.971130 43.141652 43.312069 43.482322 43.652347 43.822076
43.991439 44.160356 44.328748 44.496529 44.663609 44.829893 44.995282 45.159673
45.322958 45.485026 45.645760 45.805041 45.962746 46.118747 46.272915 46.425114
46.575209 46.723061 46.868528 47.011465 47.151728 47.289169 47.423641 47.554994
47.683080 47.807749 47.928854 48.046245 48.159779 48.269308 48.374694 48.475796
48.572478 48.664608 48.752059 48.834708 48.912436 48.985131 49.052688 49.115005
49.171991 49.223559 49.269631 49.310137 49.345015 49.374211 49.397680 49.415386
49.427302 49.433410 49.433702 49.428177 49.416846 49.399727 49.376849 49.348249
49.313973 49.274075 49.228620 49.177677 49.121327 49.059657 48.992759 48.920736
48.843693 48.761746 48.675013 48.583618 48.487688 48.387360 48.282767 48.174051
48.061354 47.944823 47.824602 47.700843 47.573693 47.443303 47.309822 47.173401
47.034188 46.892332 46.747979 46.601273 46.452358 46.301373 46.148455 45.993741
45.837359 45.679439 45.520104 45.359477 45.197671 45.034802 44.870975 44.706297
44.540866 44.374778 44.208122 44.040988 43.873454 43.705599 43.537495 43.369212
43.200811 43.032354 42.863895 42.695485 42.527169 42.358993 42.190991 42.023201
41.855652 41.688371 41.521381 41.354703 41.188351 41.022340 40.856678 40.691374
40.526429 40.361847 40.197625 40.033758 39.870241 39.707064 39.544217 39.381686
39.219457 39.057513 38.895837 38.734408 38.573205 38.412207 38.251389 38.090729
37.930201 37.769779 37.609437 37.449150 37.288889
37.666667 37.842340 38.018040 38.193794 38.369629 38.545570 38.721643 38.897873
39.074284 39.250898 39.427738 39.604824 39.782174 39.959807 40.137736 40.315978
40.494542 40.673439 40.852674 41.032253 41.212178 41.392448 41.573059 41.754004
41.935272 42.116852 42.298724 42.480871 42.663265 42.845881 43.028685 43.211641
43.394709 43.577844 43.760997 43.944115 44.127138 44.310004 44.492645 44.674990
44.856959 45.038473 45.219442 45.399776 45.579377 45.758145 45.935972 46.112748
46.288356 46.462678 46.635586 46.806954 46.976646 47.144527 47.310455 47.474286
47.635873 47.795065 47.951708 48.105647 48.256724 48.404781 48.549656 48.691188
48.829216 48.963578 49.094112 49.220659 49.343058 49.461156 49.574795 49.683826
49.788101 49.887475 49.981810 50.070972 50.154832 50.233269 50.306165 50.373412
50.434909 50.490562 50.540286 50.584005 50.621650 50.653163 50.678495 50.697606
50.710467 50.717058 50.717369 50.711402 50.699167 50.680685 50.655986 50.625110
50.588110 50.545042 50.495978 50.440994 50.380177 50.313622 50.241431 50.163714
50.080588 49.992176 49.898610 49.800021 49.696553 49.588349 49.475558 49.358332
49.236828 49.111201 48.981614 48.848226 48.711200 48.570698 48.426884 48.279920
48.129967 47.977185 47.821734 47.663769 47.503446 47.340915 47.176325 47.009821
46.841546 46.671636 46.500227 46.327447 46.153424 45.978276 45.802123 45.625075
45.447239 45.268718 45.089610 44.910005 44.729994 44.549657 44.369075 44.188317
44.007455 43.826549 43.645661 43.464843 43.284146 43.103613 42.923287 42.743203
42.563394 42.383887 42.204709 42.025878 41.847412 41.669324 41.491625 41.314320
41.137414 40.960907 40.784797 40.609078 40.433743 40.258782 40.084184 39.909932
39.736011 39.562402 39.389086 39.216041 39.043244 38.870670 38.698294 38.526090
38.354030 38.182087 38.010231 37.838434 37.666667
38.044444 38.231906 38.419396 38.606946 38.794583 38.982336 39.170234 39.358303
39.546570 39.735059 39.923796 40.112800 40.302095 40.491699 40.681629 40.871901
41.062527 41.253518 41.444883 41.636627 41.828752 42.021259 42.214144 42.407399
42.601017 42.794981 42.989275 43.183878 43.378765 43.573904 43.769265 43.964807
44.160489 44.356263 44.552077 44.747873 44.943592 45.139164 45.334519 45.529578
45.724261 45.918479 46.112140 46.305144 46.497390 46.688767 46.879163 47.068458
47.256529 47.443244 47.628474 47.812075 47.993909 48.173825 48.351673 48.527297
48.700539 48.871236 49.039224 49.204333 49.366396 49.525238 49.680688 49.832570
49.980711 50.124934 50.265067 50.400934 50.532366 50.659190 50.781242 50.898355
51.010372 51.117134 51.218493 51.314301 51.404420 51.488716 51.567065 51.639346