# vtk DataFile Version 3.0
Steady-state temperature (Jacobi)
ASCII
DATASET STRUCTURED_POINTS
DIMENSIONS 181 181 1
ORIGIN 0.0 0.0 0.0
SPACING 0.05 0.05 1.0
POINT_DATA 32761
SCALARS Temperature float 1
LOOKUP_TABLE default
32.000000 32.000000 32.000000 32.000000 32.000000 32.000000 32.000000 32.000000
32.000000 32.000000 32.000000 32.000000 32.000000 32.000000 32.000000 32.000000
32.000000 32.000000 32.000000 32.000000 32.000000 32.000000 32.000000 32.000000
32.000000 32.000000 32.000000 32.000000 32.000000 32.000000 32.000000 32.000000
32.000000 32.000000 32.000000 32.000000 32.000000 32.000000 32.000000 32.000000
32.000000 32.000000 32.000000 32.000000 32.000000 32.000000 32.000000 32.000000
32.000000 32.000000 32.000000 32.000000 32.000000 32.000000 32.000000 32.000000
32.000000 32.000000 32.000000 32.000000 32.000000 32.000000 32.000000 32.000000
32.000000 32.000000 32.000000 32.000000 32.000000 32.000000 32.000000 32.000000
32.000000 32.000000 32.000000 32.000000 32.000000 32.000000 32.000000 32.000000
32.000000 32.000000 32.000000 32.000000 32.000000 32.000000 32.000000 32.000000
32.000000 32.000000 32.000000 32.000000 32.000000 32.000000 32.000000 32.000000
32.000000 32.000000 32.000000 32.000000 32.000000 32.000000 32.000000 32.000000
32.000000 32.000000 32.000000 32.000000 32.000000 32.000000 32.000000 32.000000
32.000000 32.000000 32.000000 32.000000 32.000000 32.000000 32.000000 32.000000
32.000000 32.000000 32.000000 32.000000 32.000000 32.000000 32.000000 32.000000
32.000000 32.000000 32.000000 32.000000 32.000000 32.000000 32.000000 32.000000
32.000000 32.000000 32.000000 32.000000 32.000000 32.000000 32.000000 32.000000
32.000000 32.000000 32.000000 32.000000 32.000000 32.000000 32.000000 32.000000
32.000000 32.000000 32.000000 32.000000 32.000000 32.000000 32.000000 32.000000
32.000000 32.000000 32.000000 32.000000 32.000000 32.000000 32.000000 32.000000
32.000000 32.000000 32.000000 32.000000 32.000000 32.000000 32.000000 32.000000
32.000000 32.000000 32.000000 32.000000 32.000000
32.377778 32.374687 32.371605 32.368543 32.365510 32.362516 32.359568 32.356679
32.353855 32.351108 32.348444 32.345875 32.343406 32.341050 32.338809 32.336697
32.334717 32.332881 32.331190 32.329658 32.328283 32.327080 32.326046 32.325195
32.324522 32.324042 32.323749 32.323656 32.323757 32.324063 32.324568 32.325281
32.326196 32.327322 32.328650 32.330188 32.331926 32.333871 32.336013 32.338357
32.340891 32.343620 32.346530 32.349627 32.352893 32.356334 32.359931 32.363689
32.367587 32.371631 32.375797 32.380090 32.384487 32.388990 32.393576 32.398246
32.402977 32.407767 32.412594 32.417456 32.422330 32.427213 32.432081 32.436932
32.441743 32.446508 32.451207 32.455834 32.460367 32.464802 32.469118 32.473309
32.477356 32.481254 32.484984 32.488541 32.491909 32.495083 32.498047 32.500797
32.503321 32.505614 32.507665 32.509471 32.511024 32.512321 32.513355 32.514125
32.514627 32.514861 32.514824 32.514517 32.513942 32.513098 32.511990 32.510619
32.508992 32.507111 32.504984 32.502616 32.500017 32.497190 32.494148 32.490897
32.487451 32.483815 32.480005 32.476027 32.471899 32.467626 32.463228 32.458710
32.454093 32.449381 32.444598 32.439746 32.434849 32.429911 32.424955 32.419984
32.415021 32.410070 32.405154 32.400274 32.395453 32.390693 32.386017 32.381424
32.376937 32.372555 32.368299 32.364168 32.360181 32.356336 32.352653 32.349127
32.345778 32.342599 32.339609 32.336800 32.334190 32.331771 32.329558 32.327543
32.325739 32.324137 32.322749 32.321566 32.320598 32.319834 32.319284 32.318937
32.318800 32.318862 32.319129 32.319588 32.320245 32.321087 32.322117 32.323323
32.324707 32.326255 32.327969 32.329835 32.331853 32.334009 32.336303 32.338720
32.341258 32.343905 32.346655 32.349496 32.352424 32.355426 32.358495 32.361621
32.364795 32.368007 32.371248 32.374508 32.377778
32.755556 32.749379 32.743223 32.737104 32.731044 32.725059 32.719172 32.713398
32.707759 32.702268 32.696950 32.691815 32.686887 32.682177 32.677707 32.673486
32.669538 32.665868 32.662500 32.659437 32.656703 32.654298 32.652247 32.650545
32.649218 32.648259 32.647692 32.647507 32.647728 32.648343 32.649372 32.650803
32.652655 32.654909 32.657587 32.660667 32.664166 32.668061 32.672368 32.677061
32.682155 32.687618 32.693466 32.699664 32.706224 32.713111 32.720334 32.727856
32.735683 32.743776 32.752140 32.760733 32.769558 32.778571 32.787774 32.797122
32.806614 32.816203 32.825888 32.835621 32.845399 32.855174 32.864941 32.874652
32.884302 32.893843 32.903268 32.912531 32.921624 32.930504 32.939160 32.947552
32.955669 32.963473 32.970955 32.978078 32.984832 32.991187 32.997132 33.002639
33.007701 33.012292 33.016406 33.020023 33.023137 33.025734 33.027808 33.029350
33.030358 33.030825 33.030752 33.030138 33.028983 33.027294 33.025071 33.022327
33.019064 33.015297 33.011033 33.006291 33.001078 32.995418 32.989318 32.982809
32.975897 32.968617 32.960976 32.953011 32.944732 32.936177 32.927356 32.918311
32.909050 32.899617 32.890022 32.880309 32.870487 32.860601 32.850659 32.840707
32.830752 32.820840 32.810977 32.801208 32.791536 32.782008 32.772625 32.763432
32.754428 32.745656 32.737114 32.728844 32.720841 32.713146 32.705750 32.698693
32.691966 32.685604 32.679596 32.673975 32.668728 32.663886 32.659435 32.655401
32.651768 32.648562 32.645763 32.643394 32.641436 32.639907 32.638787 32.638091
32.637797 32.637919 32.638434 32.639351 32.640647 32.642330 32.644374 32.646784
32.649536 32.652632 32.656045 32.659776 32.663799 32.668110 32.672685 32.677518
32.682583 32.687874 32.693364 32.699045 32.704892 32.710892 32.717023 32.723270
32.729611 32.736030 32.742506 32.749022 32.755556
33.133333 33.124083 33.114862 33.105700 33.096622 33.087663 33.078844 33.070201
33.061754 33.053538 33.045571 33.037890 33.030510 33.023467 33.016774 33.010468
33.004557 32.999078 32.994038 32.989472 32.985382 32.981807 32.978741 32.976222
32.974244 32.972842 32.972004 32.971765 32.972111 32.973074 32.974634 32.976823
32.979616 32.983045 32.987079 32.991746 32.997014 33.002907 33.009389 33.016482
33.024143 33.032394 33.041188 33.050543 33.060409 33.070799 33.081660 33.093004
33.104773 33.116975 33.129550 33.142503 33.155771 33.169356 33.183192 33.197280
33.211550 33.226000 33.240560 33.255225 33.269926 33.284653 33.299337 33.313968
33.328476 33.342849 33.357019 33.370974 33.384646 33.398021 33.411037 33.423677
33.435883 33.447638 33.458887 33.469616 33.479773 33.489345 33.498284 33.506580
33.514191 33.521106 33.527293 33.532741 33.537424 33.541335 33.544455 33.546779
33.548294 33.548998 33.548888 33.547964 33.546228 33.543684 33.540342 33.536209
33.531303 33.525630 33.519219 33.512077 33.504238 33.495713 33.486542 33.476738
33.466346 33.455381 33.443893 33.431896 33.419448 33.406562 33.393300 33.379675
33.365752 33.351544 33.337118 33.322487 33.307719 33.292827 33.277880 33.262888
33.247922 33.232989 33.218160 33.203441 33.188901 33.174544 33.160438 33.146583
33.133046 33.119824 33.106982 33.094514 33.082482 33.070877 33.059758 33.049114
33.038998 33.029397 33.020361 33.011874 33.003983 32.996667 32.989970 32.983868
32.978400 32.973542 32.969327 32.965728 32.962775 32.960438 32.958742 32.957657
32.957203 32.957348 32.958107 32.959447 32.961379 32.963869 32.966924 32.970508
32.974626 32.979239 32.984349 32.989918 32.995942 33.002384 33.009237 33.016463
33.024051 33.031965 33.040191 33.048692 33.057451 33.066433 33.075618 33.084972
33.094473 33.104086 33.113787 33.123546 33.133333
33.511111 33.498804 33.486537 33.474346 33.462272 33.450350 33.438624 33.427123
33.415894 33.404962 33.394376 33.384158 33.374357 33.364990 33.356107 33.347723
33.339886 33.332606 33.325933 33.319871 33.314470 33.309729 33.305697 33.302367
33.299788 33.297948 33.296894 33.296608 33.297136 33.298454 33.300605 33.303561
33.307361 33.311972 33.317430 33.323696 33.330804 33.338707 33.347437 33.356942
33.367250 33.378303 33.390125 33.402652 33.415906 33.429817 33.444402 33.459587
33.475385 33.491718 33.508594 33.525930 33.543732 33.561913 33.580474 33.599326
33.618466 33.637803 33.657331 33.676956 33.696670 33.716377 33.736068 33.755646
33.775099 33.794334 33.813334 33.832008 33.850339 33.868238 33.885688 33.902605
33.918968 33.934701 33.949783 33.964142 33.977759 33.990569 34.002554 34.013656
34.023860 34.033116 34.041410 34.048702 34.054981 34.060217 34.064400 34.067510
34.069542 34.070485 34.070339 34.069101 34.066775 34.063371 34.058893 34.053361
34.046785 34.039194 34.030599 34.021041 34.010534 33.999125 33.986832 33.973712
33.959782 33.945107 33.929707 33.913654 33.896966 33.879723 33.861944 33.843712
33.825046 33.806033 33.786693 33.767115 33.747316 33.727388 33.707347 33.687287
33.667219 33.647237 33.627352 33.607656 33.588156 33.568944 33.550022 33.531482
33.513321 33.495627 33.478395 33.461709 33.445559 33.430027 33.415098 33.400848
33.387260 33.374404 33.362261 33.350894 33.340280 33.330477 33.321459 33.313278
33.305904 33.299385 33.293685 33.288847 33.284834 33.281682 33.279350 33.277869
33.277197 33.277358 33.278307 33.280064 33.282582 33.285874 33.289893 33.294646
33.300084 33.306211 33.312976 33.320378 33.328366 33.336932 33.346028 33.355640
33.365719 33.376249 33.387181 33.398494 33.410140 33.422094 33.434310 33.446760
33.459397 33.472192 33.485100 33.498087 33.511111
33.888889 33.873549 33.858256 33.843062 33.828011 33.813157 33.798538 33.784213
33.770216 33.756605 33.743412 33.730697 33.718486 33.706839 33.695776 33.685361
33.675608 33.666578 33.658281 33.650779 33.644074 33.638229 33.633237 33.629162
33.625991 33.623783 33.622521 33.622263 33.622982 33.624734 33.627486 33.631292
33.636111 33.641992 33.648887 33.656844 33.665806 33.675817 33.686812 33.698831
33.711803 33.725763 33.740633 33.756442 33.773107 33.790651 33.808985 33.828127
33.847982 33.868563 33.889769 33.911609 33.933976 33.956874 33.980193 34.003933
34.027978 34.052325 34.076856 34.101563 34.126327 34.151136 34.175871 34.200515
34.224952 34.249162 34.273029 34.296533 34.319560 34.342088 34.364010 34.385300
34.405857 34.425657 34.444604 34.462675 34.479783 34.495904 34.510962 34.524934
34.537754 34.549403 34.559824 34.569002 34.576892 34.583481 34.588737 34.592652
34.595206 34.596395 34.596211 34.594656 34.591734 34.587451 34.581826 34.574867
34.566605 34.557054 34.546258 34.534231 34.521031 34.506676 34.491234 34.474724
34.457225 34.438760 34.419415 34.399214 34.378252 34.356554 34.334221 34.311277
34.287831 34.263905 34.239611 34.214972 34.190103 34.165023 34.139849 34.114600
34.089392 34.064240 34.039262 34.014467 33.989972 33.965782 33.942013 33.918665
33.895849 33.873562 33.851912 33.830888 33.810595 33.791018 33.772255 33.754287
33.737205 33.720985 33.705714 33.691361 33.678006 33.665616 33.654261 33.643904
33.634609 33.626335 33.619139 33.612974 33.607890 33.603838 33.600861 33.598905
33.598007 33.598110 33.599242 33.601345 33.604442 33.608470 33.613446 33.619306
33.626060 33.633643 33.642057 33.651239 33.661182 33.671825 33.683155 33.695110
33.707671 33.720777 33.734404 33.748492 33.763012 33.777905 33.793138 33.808653
33.824412 33.840361 33.856457 33.872648 33.888889
34.266667 34.248321 34.230034 34.211862 34.193868 34.176102 34.158631 34.141500
34.124778 34.108505 34.092753 34.077556 34.062986 34.049071 34.035887 34.023453
34.011845 34.001077 33.991223 33.982291 33.974356 33.967415 33.961544 33.956732
33.953052 33.950487 33.949108 33.948887 33.949893 33.952091 33.955547 33.960216
33.966161 33.973327 33.981773 33.991437 34.002373 34.014509 34.027894 34.042448
34.058215 34.075105 34.093158 34.112275 34.132490 34.153697 34.175923 34.199054
34.223112 34.247977 34.273662 34.300043 34.327127 34.354783 34.383014 34.411683
34.440788 34.470189 34.499877 34.529712 34.559678 34.589635 34.619563 34.649322
34.678888 34.708121 34.736997 34.765378 34.793236 34.820440 34.846959 34.872668
34.897537 34.921447 34.944368 34.966190 34.986886 35.006355 35.024571 35.041445
35.056954 35.071023 35.083630 35.094715 35.104260 35.112219 35.118578 35.123308
35.126399 35.127836 35.127615 35.125738 35.122206 35.117035 35.110233 35.101830
35.091839 35.080306 35.067249 35.052727 35.036762 35.019429 35.000751 34.980817
34.959652 34.937356 34.913957 34.889566 34.864212 34.838013 34.810999 34.783297
34.754936 34.726048 34.696662 34.666913 34.636828 34.606547 34.576093 34.545607
34.515108 34.484739 34.454515 34.424576 34.394932 34.365723 34.336952 34.308757
34.281134 34.254217 34.227998 34.202603 34.178019 34.154366 34.131625 34.109910
34.089194 34.069585 34.051051 34.033689 34.017464 34.002464 33.988648 33.976097
33.964762 33.954718 33.945911 33.938405 33.932142 33.927179 33.923454 33.921013
33.919791 33.919827 33.921051 33.923493 33.927082 33.931840 33.937692 33.944653
33.952647 33.961679 33.971673 33.982626 33.994463 34.007173 34.020679 34.034965
34.049955 34.065624 34.081899 34.098748 34.116099 34.133914 34.152124 34.170686
34.189532 34.208614 34.227867 34.247238 34.266667
34.644444 34.623128 34.601879 34.580768 34.559858 34.539225 34.518925 34.499037
34.479612 34.460731 34.442438 34.424818 34.407906 34.391790 34.376498 34.362117
34.348667 34.336238 34.324840 34.314563 34.305408 34.297463 34.290723 34.285272
34.281096 34.278278 34.276793 34.276721 34.278028 34.280791 34.284965 34.290623
34.297709 34.306294 34.316309 34.327820 34.340750 34.355158 34.370956 34.388198
34.406786 34.426766 34.448031 34.470622 34.494420 34.519460 34.545614 34.572909
34.601210 34.630537 34.660745 34.691848 34.723696 34.756294 34.789485 34.823269
34.857485 34.892125 34.927025 34.962171 34.997397 35.032683 35.067863 35.102912
35.137666 35.172095 35.206037 35.239460 35.272207 35.304243 35.335416 35.365692
35.394926 35.423082 35.450027 35.475725 35.500055 35.522982 35.544396 35.564268
35.582502 35.599070 35.613892 35.626947 35.638170 35.647543 35.655022 35.660593
35.664229 35.665923 35.665666 35.663458 35.659308 35.653222 35.645227 35.635335
35.623592 35.610015 35.594667 35.577571 35.558806 35.538399 35.516445 35.492975
35.468098 35.441847 35.414345 35.385628 35.355827 35.324981 35.293231 35.260613
35.227280 35.193265 35.158727 35.123697 35.088338 35.052679 35.016885 34.980982
34.945136 34.909367 34.873841 34.838574 34.803729 34.769315 34.735494 34.702267
34.669792 34.638063 34.607232 34.577287 34.548372 34.520469 34.493714 34.468082
34.443700 34.420536 34.398709 34.378180 34.359058 34.341296 34.324996 34.310103
34.296709 34.284755 34.274319 34.265339 34.257883 34.251882 34.247396 34.244350
34.242793 34.242648 34.243954 34.246629 34.250702 34.256090 34.262811 34.270779
34.280004 34.290399 34.301964 34.314610 34.328330 34.343034 34.358705 34.375256
34.392661 34.410833 34.429740 34.449295 34.469458 34.490147 34.511314 34.532878
34.554786 34.576961 34.599343 34.621859 34.644444
35.022222 34.997973 34.973804 34.949789 34.926012 34.902542 34.879467 34.856848
34.834779 34.813313 34.792546 34.772523 34.753343 34.735042 34.717722 34.701409
34.686206 34.672129 34.659282 34.647672 34.637400 34.628465 34.620965 34.614889
34.610334 34.607277 34.605812 34.605904 34.607646 34.610990 34.616023 34.622688
34.631067 34.641090 34.652833 34.666214 34.681305 34.698011 34.716397 34.736356
34.757947 34.781050 34.805716 34.831817 34.859393 34.888306 34.918590 34.950094
34.982844 35.016681 35.051623 35.087502 35.124326 35.161922 35.200289 35.239248
35.278791 35.318734 35.359060 35.399583 35.440281 35.480964 35.521604 35.562014
35.602159 35.641853 35.681058 35.719593 35.757417 35.794352 35.830358 35.865264
35.899029 35.931493 35.962615 35.992246 36.020346 36.046782 36.071517 36.094431
36.115492 36.134597 36.151719 36.166773 36.179738 36.190549 36.199188 36.205615
36.209817 36.211773 36.211480 36.208937 36.204147 36.197132 36.187902 36.176499
36.162940 36.147288 36.129566 36.109857 36.088189 36.064663 36.039313 36.012256
35.983530 35.953268 35.921510 35.888404 35.853992 35.818433 35.781768 35.744169
35.705675 35.666464 35.626577 35.586197 35.545360 35.504254 35.462912 35.421524
35.380118 35.338883 35.297841 35.257182 35.216920 35.177242 35.138155 35.099840
35.062299 35.025706 34.990053 34.955509 34.922058 34.889860 34.858890 34.829300
34.801056 34.774301 34.748993 34.725263 34.703062 34.682511 34.663551 34.646293
34.630671 34.616785 34.604562 34.594088 34.585287 34.578232 34.572841 34.569176
34.567150 34.566813 34.568073 34.570969 34.575407 34.581414 34.588892 34.597858
34.608212 34.619959 34.632999 34.647327 34.662840 34.679526 34.697282 34.716083
34.735829 34.756488 34.777959 34.800200 34.823116 34.846655 34.870723 34.895264
34.920185 34.945424 34.970892 34.996519 35.022222
35.400000 35.372865 35.345817 35.318949 35.292341 35.266092 35.240274 35.214990
35.190305 35.166325 35.143107 35.120761 35.099333 35.078936 35.059606 35.041457
35.024516 35.008897 34.994615 34.981785 34.970410 34.960605 34.952361 34.945789
34.940870 34.937712 34.936283 34.936688 34.938882 34.942964 34.948877 34.956716
34.966409 34.978046 34.991542 35.006979 35.024259 35.043458 35.064463 35.087343
35.111971 35.138409 35.166517 35.196346 35.227746 35.260759 35.295221 35.331166
35.368420 35.407006 35.446739 35.487635 35.529500 35.572338 35.615950 35.660330
35.705272 35.750762 35.796590 35.842735 35.888982 35.935304 35.981485 36.027490
36.073107 36.118296 36.162845 36.206712 36.249691 36.291736 36.332651 36.372385
36.410755 36.447709 36.483075 36.516805 36.548740 36.578833 36.606944 36.633029
36.656965 36.678715 36.698175 36.715314 36.730051 36.742360 36.752182 36.759500
36.764279 36.766510 36.766180 36.763289 36.757849 36.749868 36.739382 36.726407
36.711003 36.693192 36.673056 36.650627 36.626008 36.599235 36.570432 36.539640
36.507001 36.472562 36.436480 36.398804 36.359707 36.319237 36.277582 36.234789
36.191056 36.146429 36.101114 36.055153 36.008758 35.961969 35.915000 35.867885
35.820840 35.773895 35.727262 35.680965 35.635215 35.590026 35.545606 35.501959
35.459288 35.417588 35.377055 35.337675 35.299633 35.262907 35.227674 35.193900
35.161751 35.131185 35.102356 35.075214 35.049900 35.026353 35.004704 34.984884
34.967010 34.951004 34.936971 34.924827 34.914661 34.906384 34.900071 34.895628
34.893117 34.892438 34.893639 34.896617 34.901407 34.907902 34.916126 34.925967
34.937437 34.950424 34.964926 34.980830 34.998125 35.016696 35.036520 35.057484
35.079555 35.102619 35.126634 35.151490 35.177133 35.203457 35.230400 35.257858
35.285762 35.314011 35.342528 35.371219 35.400000
35.777778 35.747806 35.717934 35.688256 35.658879 35.629888 35.601395 35.573479
35.546254 35.519790 35.494207 35.469562 35.445980 35.423508 35.402271 35.382305
35.363738 35.346593 35.330998 35.316964 35.304617 35.293958 35.285110 35.278059
35.272927 35.269686 35.268454 35.269190 35.272007 35.276848 35.283823 35.292858
35.304059 35.317336 35.332788 35.350310 35.369993 35.391718 35.415566 35.441404
35.469304 35.499119 35.530910 35.564517 35.599991 35.637156 35.676055 35.716500
35.758521 35.801920 35.846715 35.892698 35.939877 35.988033 36.037164 36.087045
36.137663 36.188786 36.240392 36.292246 36.344317 36.396366 36.448357 36.500050
36.551402 36.602176 36.652323 36.701613 36.749992 36.797235 36.843288 36.887937
36.931126 36.972652 37.012460 37.050364 37.086310 37.120129 37.151772 37.181088
37.208032 37.232477 37.254384 37.273649 37.290239 37.304076 37.315135 37.323364
37.328747 37.331258 37.330892 37.327647 37.321530 37.312565 37.300768 37.286192
37.268859 37.248848 37.226191 37.200991 37.173288 37.143208 37.110796 37.076201
37.039473 37.000781 36.960177 36.917849 36.873852 36.828387 36.781511 36.733437
36.684221 36.634087 36.583088 36.531456 36.479240 36.426677 36.373810 36.320880
36.267923 36.215180 36.162680 36.110662 36.059146 36.008367 35.958336 35.909283
35.861208 35.814333 35.768650 35.724369 35.681472 35.640161 35.600405 35.562394
35.526089 35.491666 35.459074 35.428477 35.399815 35.373238 35.348675 35.326262
35.305919 35.287767 35.271719 35.257880 35.246155 35.236635 35.229218 35.223979
35.220810 35.219773 35.220753 35.223797 35.228788 35.235758 35.244585 35.255289
35.267744 35.281956 35.297799 35.315265 35.334229 35.354669 35.376459 35.399567
35.423867 35.449316 35.475790 35.503235 35.531529 35.560610 35.590358 35.620700
35.651523 35.682745 35.714257 35.745969 35.777778
36.155556 36.122803 36.090158 36.057735 36.025632 35.993972 35.962844 35.932375
35.902645 35.873785 35.845866 35.819021 35.793311 35.768871 35.745750 35.724085
35.703912 35.685370 35.668480 35.653382 35.640082 35.628718 35.619284 35.611915
35.606588 35.603436 35.602421 35.603672 35.607134 35.612930 35.620990 35.631430
35.644165 35.659303 35.676740 35.696579 35.718699 35.743193 35.769924 35.798974
35.830191 35.863647 35.899172 35.936829 35.976433 36.018034 36.061433 36.106668
36.153526 36.202034 36.251966 36.303338 36.355912 36.409692 36.464430 36.520119
36.576505 36.633569 36.691049 36.748919 36.806913 36.864993 36.922895 36.980573
37.037762 37.094411 37.150260 37.205250 37.259129 37.311836 37.363126 37.412938
37.461040 37.507367 37.551706 37.593994 37.634033 37.671764 37.707011 37.739719
37.769735 37.797010 37.821415 37.842911 37.861396 37.876837 37.889161 37.898346
37.904348 37.907154 37.906751 37.903138 37.896329 37.886334 37.873199 37.856944
37.837643 37.815327 37.790096 37.761991 37.731141 37.697593 37.661499 37.622915
37.582016 37.538861 37.493648 37.446439 37.397447 37.346739 37.294543 37.240923
37.186123 37.130204 37.073419 37.015827 36.957687 36.899052 36.840187 36.781137
36.722169 36.663322 36.604859 36.546810 36.489437 36.432760 36.377034 36.322267
36.268708 36.216355 36.165447 36.115969 36.068149 36.021961 35.977621 35.935091
35.894573 35.856018 35.819613 35.785298 35.753245 35.723383 35.695868 35.670617
35.647773 35.627243 35.609151 35.593397 35.580089 35.569117 35.560573 35.554340
35.550495 35.548914 35.549656 35.552594 35.557770 35.565052 35.574468 35.585882
35.599307 35.614605 35.631773 35.650673 35.671288 35.693478 35.717215 35.742358
35.768866 35.796601 35.825508 35.855453 35.886369 35.918125 35.950645 35.983799
36.017503 36.051633 36.086094 36.120770 36.155556
36.533333 36.497859 36.462507 36.427390 36.392637 36.358352 36.324672 36.291690
36.259547 36.228326 36.198173 36.169158 36.141432 36.115052 36.090169 36.066829
36.045185 36.025267 36.007229 35.991086 35.976990 35.964942 35.955092 35.947424
35.942085 35.939043 35.938441 35.940228 35.944544 35.951319 35.960686 35.972559
35.987062 36.004091 36.023763 36.045954 36.070772 36.098075 36.127961 36.160270
36.195087 36.232237 36.271792 36.313559 36.357599 36.403701 36.451914 36.502012
36.554031 36.607728 36.663128 36.719975 36.778280 36.837776 36.898460 36.960057
37.022551 37.085659 37.149354 37.213348 37.277601 37.341825 37.405970 37.469747
37.533098 37.595736 37.657599 37.718404 37.778083 37.836365 37.893177 37.948259
38.001538 38.052770 38.101883 38.148650 38.193001 38.234730 38.273774 38.309951
38.343201 38.373370 38.400408 38.424187 38.444667 38.461750 38.475407 38.485571
38.492226 38.495336 38.494896 38.490906 38.483371 38.472324 38.457783 38.439812
38.418442 38.393768 38.365830 38.334756 38.300595 38.263502 38.223535 38.180875
38.135586 38.087874 38.037808 37.985614 37.931364 37.875303 37.817504 37.758226
37.697542 37.635724 37.572841 37.509173 37.444786 37.379965 37.314770 37.249489
37.184173 37.119113 37.054347 36.990164 36.926594 36.863920 36.802158 36.741586
36.682208 36.624291 36.567827 36.513072 36.460005 36.408868 36.359629 36.312514
36.267478 36.224733 36.184219 36.146134 36.110405 36.077213 36.046472 36.018346
35.992739 35.969797 35.949413 35.931714 35.916586 35.904137 35.894243 35.886996
35.882264 35.880121 35.880428 35.883241 35.888418 35.895996 35.905829 35.917939
35.932174 35.948541 35.966887 35.987202 36.009333 36.033255 36.058813 36.085970
36.114572 36.144567 36.175805 36.208220 36.241665 36.276062 36.311269 36.347196
36.383706 36.420698 36.458043 36.495629 36.533333
36.911111 36.872983 36.834983 36.797247 36.759896 36.723073 36.686886 36.651486
36.616969 36.583493 36.551140 36.520072 36.490360 36.462167 36.435551 36.410676
36.387584 36.366443 36.347278 36.330255 36.315384 36.302830 36.292584 36.284810
36.279480 36.276754 36.276586 36.279131 36.284324 36.292313 36.303015 36.316568
36.332872 36.352055 36.373997 36.398817 36.426374 36.456777 36.489865 36.525736
36.564209 36.605368 36.649014 36.695219 36.743763 36.794706 36.847810 36.903119
36.960381 37.019625 37.080583 37.143270 37.207404 37.272985 37.339721 37.407597
37.476312 37.545837 37.615864 37.686352 37.756988 37.827721 37.898234 37.968469
38.038108 38.107085 38.175089 38.242045 38.307651 38.371827 38.434283 38.494936
38.553511 38.609927 38.663923 38.715422 38.764187 38.810141 38.853073 38.892913
38.929477 38.962704 38.992439 39.018630 39.041154 39.059973 39.074996 39.086197
39.093520 39.096953 39.096477 39.092091 39.083814 39.071658 39.055676 39.035897
39.012407 38.985247 38.954538 38.920331 38.882781 38.841947 38.798015 38.751053
38.701273 38.648750 38.593721 38.536264 38.476638 38.414924 38.351399 38.286144
38.219451 38.151398 38.082288 38.012197 37.941434 37.870070 37.798418 37.726541
37.654755 37.583111 37.511925 37.441236 37.371356 37.302313 37.234411 37.167664
37.102368 37.038523 36.976413 36.916024 36.857627 36.801193 36.746978 36.694940
36.645318 36.598055 36.553372 36.511200 36.471743 36.434915 36.400903 36.369610
36.341201 36.315569 36.292859 36.272952 36.255975 36.241799 36.230531 36.222033
36.216393 36.213465 36.213318 36.215800 36.220960 36.228641 36.238874 36.251499
36.266528 36.283798 36.303304 36.324881 36.348508 36.374019 36.401378 36.430419
36.461090 36.493228 36.526767 36.561546 36.597485 36.634428 36.672282 36.710896
36.750165 36.789944 36.830119 36.870549 36.911111
37.288889 37.248174 37.207603 37.167310 37.127447 37.088136 37.049540 37.011767
36.974985 36.939292 36.904860 36.871773 36.840207 36.810231 36.782025 36.755641
36.731260 36.708919 36.688798 36.670918 36.655458 36.642419 36.631978 36.624119
36.619013 36.616625 36.617123 36.620449 36.626766 36.635996 36.648293 36.663558
36.681938 36.703312 36.727815 36.755306 36.785908 36.819460 36.856072 36.895560
36.938022 36.983254 37.031339 37.082052 37.135462 37.191323 37.249690 37.310299
37.373187 37.438074 37.504981 37.573611 37.643972 37.715751 37.788940 37.863215
37.938554 38.014623 38.091385 38.168500 38.245918 38.323297 38.400573 38.477404
38.553718 38.629174 38.703692 38.776939 38.848829 38.919037 38.987475 39.053833
39.118019 39.179744 39.238915 39.295264 39.348703 39.398989 39.446039 39.489637
39.529711 39.566075 39.598666 39.627332 39.652024 39.672624 39.689095 39.701360
39.709394 39.713159 39.712647 39.707856 39.698794 39.685501 39.667998 39.646363
39.620633 39.590923 39.557283 39.519864 39.478728 39.434061 39.385934 39.334564
39.280031 39.222579 39.162296 39.099450 39.034132 38.966633 38.897044 38.825674
38.752613 38.678186 38.602477 38.525821 38.448298 38.370250 38.291749 38.213138
38.134482 38.056122 37.978112 37.900791 37.824198 37.748666 37.674222 37.601188
37.529577 37.459700 37.391553 37.325435 37.261325 37.199507 37.139945 37.082905
37.028335 36.976484 36.927284 36.880964 36.837442 36.796927 36.759321 36.724814
36.693296 36.664934 36.639605 36.617456 36.598354 36.582422 36.569518 36.559744
36.552949 36.549216 36.548383 36.550513 36.555440 36.563206 36.573638 36.586760
36.602396 36.620550 36.641044 36.663863 36.688828 36.715907 36.744920 36.775821
36.808428 36.842680 36.878400 36.915509 36.953834 36.993282 37.033687 37.074941
37.116884 37.159396 37.202323 37.245537 37.288889
37.666667 37.623443 37.580369 37.537604 37.495288 37.453590 37.412634 37.372599
37.333596 37.295809 37.259335 37.224364 37.190977 37.159366 37.129599 37.101868
37.076224 37.052859 37.031808 37.013262 36.997234 36.983917 36.973304 36.965581
36.960723 36.958912 36.960099 36.964462 36.971930 36.982672 36.996596 37.013862
37.034354 37.058223 37.085329 37.115812 37.149508 37.186545 37.226736 37.270193
37.316709 37.366381 37.418978 37.474580 37.532937 37.594112 37.657833 37.724147
37.792761 37.863706 37.936672 38.011671 38.088376 38.166783 38.246552 38.327662
38.409759 38.492808 38.576447 38.660624 38.744972 38.829426 38.913617 38.997467
39.080608 39.162954 39.244141 39.324075 39.402400 39.479018 39.553586 39.626004
39.695944 39.763307 39.827787 39.889286 39.947524 40.002408 40.053686 40.101275
40.144954 40.184648 40.220174 40.251469 40.278388 40.300880 40.318841 40.332236
40.341002 40.345122 40.344573 40.339355 40.329489 40.314991 40.295925 40.272325
40.244294 40.211881 40.175231 40.134406 40.089590 40.040857 39.988425 39.932378
39.872969 39.810289 39.744618 39.676054 39.604902 39.531262 39.455461 39.377598
39.298019 39.216820 39.134358 39.050727 38.966291 38.881137 38.795635 38.709861
38.624187 38.538677 38.453702 38.369312 38.285871 38.203416 38.122303 38.042552
37.964508 37.888174 37.813881 37.741617 37.671695 37.604087 37.539088 37.476651
37.417054 37.360233 37.306444 37.255608 37.207959 37.163402 37.122150 37.084091
37.049417 37.018003 36.990017 36.965320 36.944058 36.926081 36.911511 36.900190
36.892215 36.887420 36.885880 36.887419 36.892093 36.899720 36.910332 36.923744
36.939969 36.958815 36.980276 37.004160 37.030441 37.058925 37.089569 37.122180
37.156696 37.192926 37.230793 37.270109 37.310782 37.352626 37.395536 37.439333
37.483896 37.529054 37.574675 37.620593 37.666667
38.044444 37.998788 37.953298 37.908130 37.863459 37.819430 37.776226 37.733978
37.692878 37.653039 37.614661 37.577842 37.542785 37.509572 37.478409 37.449360
37.422632 37.398270 37.376483 37.357295 37.340912 37.327340 37.316782 37.309221
37.304855 37.303646 37.305786 37.311213 37.320113 37.332399 37.348248 37.367550
37.390471 37.416876 37.446919 37.480441 37.517583 37.558160 37.602299 37.649790
37.700745 37.754929 37.812438 37.873013 37.936732 38.003313 38.072816 38.144938
38.219720 38.296837 38.376312 38.457803 38.541312 38.626482 38.713296 38.801382
38.890706 38.980886 39.071869 39.163265 39.255008 39.346701 39.438264 39.529301
39.619718 39.709122 39.797412 39.884200 39.969379 40.052571 40.133666 40.212302
40.288366 40.361519 40.431648 40.498438 40.561781 40.621392 40.677170 40.728861