# vtk DataFile Version 3.0
Steady-state temperature (Jacobi)
ASCII
DATASET STRUCTURED_POINTS
DIMENSIONS 181 181 1
ORIGIN 0.0 0.0 0.0
SPACING 0.05 0.05 1.0
POINT_DATA 32761
SCALARS Temperature float 1
LOOKUP_TABLE default
32.000000 32.000000 32.000000 32.000000 32.000000 32.000000 32.000000 32.000000
32.000000 32.000000 32.000000 32.000000 32.000000 32.000000 32.000000 32.000000
32.000000 32.000000 32.000000 32.000000 32.000000 32.000000 32.000000 32.000000
32.000000 32.000000 32.000000 32.000000 32.000000 32.000000 32.000000 32.000000
32.000000 32.000000 32.000000 32.000000 32.000000 32.000000 32.000000 32.000000
32.000000 32.000000 32.000000 32.000000 32.000000 32.000000 32.000000 32.000000
32.000000 32.000000 32.000000 32.000000 32.000000 32.000000 32.000000 32.000000
32.000000 32.000000 32.000000 32.000000 32.000000 32.000000 32.000000 32.000000
32.000000 32.000000 32.000000 32.000000 32.000000 32.000000 32.000000 32.000000
32.000000 32.000000 32.000000 32.000000 32.000000 32.000000 32.000000 32.000000
32.000000 32.000000 32.000000 32.000000 32.000000 32.000000 32.000000 32.000000
32.000000 32.000000 32.000000 32.000000 32.000000 32.000000 32.000000 32.000000
32.000000 32.000000 32.000000 32.000000 32.000000 32.000000 32.000000 32.000000
32.000000 32.000000 32.000000 32.000000 32.000000 32.000000 32.000000 32.000000
32.000000 32.000000 32.000000 32.000000 32.000000 32.000000 32.000000 32.000000
32.000000 32.000000 32.000000 32.000000 32.000000 32.000000 32.000000 32.000000
32.000000 32.000000 32.000000 32.000000 32.000000 32.000000 32.000000 32.000000
32.000000 32.000000 32.000000 32.000000 32.000000 32.000000 32.000000 32.000000
32.000000 32.000000 32.000000 32.000000 32.000000 32.000000 32.000000 32.000000
32.000000 32.000000 32.000000 32.000000 32.000000 32.000000 32.000000 32.000000
32.000000 32.000000 32.000000 32.000000 32.000000 32.000000 32.000000 32.000000
32.000000 32.000000 32.000000 32.000000 32.000000 32.000000 32.000000 32.000000
32.000000 32.000000 32.000000 32.000000 32.000000
32.377778 32.388689 32.399602 32.410520 32.421443 32.432374 32.443314 32.454266
32.465231 32.476210 32.487207 32.498221 32.509254 32.520308 32.531383 32.542481
32.553603 32.564749 32.575920 32.587116 32.598337 32.609584 32.620856 32.632153
32.643474 32.654818 32.666184 32.677570 32.688976 32.700400 32.711838 32.723289
32.734750 32.746218 32.757690 32.769162 32.780630 32.792090 32.803538 32.814968
32.826376 32.837757 32.849104 32.860411 32.871673 32.882882 32.894031 32.905114
32.916123 32.927049 32.937886 32.948624 32.959256 32.969771 32.980162 32.990420
33.000534 33.010495 33.020295 33.029922 33.039366 33.048619 33.057670 33.066510
33.075127 33.083512 33.091655 33.099546 33.107176 33.114535 33.121613 33.128402
33.134892 33.141074 33.146941 33.152484 33.157696 33.162568 33.167095 33.171269
33.175085 33.178537 33.181620 33.184329 33.186660 33.188610 33.190176 33.191356
33.192147 33.192549 33.192561 33.192184 33.191417 33.190262 33.188721 33.186796
33.184491 33.181808 33.178753 33.175328 33.171541 33.167396 33.162900 33.158058
33.152879 33.147370 33.141538 33.135391 33.128939 33.122189 33.115151 33.107835
33.100249 33.092403 33.084308 33.075972 33.067407 33.058621 33.049626 33.040431
33.031047 33.021483 33.011749 33.001856 32.991812 32.981628 32.971313 32.960876
32.950327 32.939673 32.928924 32.918089 32.907174 32.896189 32.885140 32.874035
32.862880 32.851684 32.840451 32.829189 32.817902 32.806596 32.795278 32.783950
32.772618 32.761286 32.749959 32.738639 32.727329 32.716034 32.704755 32.693496
32.682258 32.671042 32.659852 32.648688 32.637551 32.626442 32.615362 32.604310
32.593289 32.582296 32.571333 32.560398 32.549492 32.538612 32.527760 32.516932
32.506129 32.495348 32.484589 32.473849 32.463128 32.452422 32.441732 32.431053
32.420385 32.409726 32.399073 32.388424 32.377778
32.755556 32.777380 32.799208 32.821044 32.842892 32.864755 32.886637 32.908543
32.930474 32.952436 32.974430 32.996460 33.018528 33.040638 33.062792 33.084990
33.107236 33.129531 33.151876 33.174270 33.196716 33.219213 33.241761 33.264357
33.287003 33.309695 33.332431 33.355209 33.378026 33.400877 33.423759 33.446666
33.469594 33.492535 33.515485 33.538435 33.561378 33.584305 33.607207 33.630076
33.652900 33.675668 33.698370 33.720993 33.743525 33.765951 33.788259 33.810434
33.832461 33.854324 33.876007 33.897494 33.918767 33.939808 33.960601 33.981127
34.001366 34.021299 34.040909 34.060173 34.079074 34.097591 34.115704 34.133393
34.150638 34.167419 34.183716 34.199509 34.214779 34.229507 34.243673 34.257260
34.270249 34.282623 34.294366 34.305460 34.315891 34.325643 34.334703 34.343058
34.350696 34.357604 34.363775 34.369197 34.373863 34.377767 34.380901 34.383262
34.384846 34.385651 34.385676 34.384920 34.383385 34.381073 34.377989 34.374136
34.369522 34.364152 34.358036 34.351182 34.343602 34.335305 34.326306 34.316616
34.306250 34.295223 34.283550 34.271248 34.258334 34.244825 34.230740 34.216096
34.200914 34.185213 34.169011 34.152329 34.135187 34.117606 34.099605 34.081204
34.062424 34.043285 34.023807 34.004009 33.983911 33.963533 33.942892 33.922008
33.900898 33.879581 33.858074 33.836393 33.814554 33.792574 33.770467 33.748248
33.725931 33.703530 33.681056 33.658524 33.635942 33.613325 33.590680 33.568018
33.545347 33.522678 33.500016 33.477370 33.454746 33.432151 33.409588 33.387064
33.364583 33.342149 33.319763 33.297431 33.275153 33.252932 33.230768 33.208662
33.186616 33.164628 33.142698 33.120827 33.099011 33.077250 33.055542 33.033885
33.012276 32.990713 32.969193 32.947712 32.926267 32.904855 32.883472 32.862114
32.840776 32.819456 32.798149 32.776850 32.755556
33.133333 33.166073 33.198820 33.231577 33.264353 33.297152 33.329980 33.362842
33.395744 33.428690 33.461686 33.494736 33.527844 33.561014 33.594250 33.627554
33.660929 33.694378 33.727902 33.761502 33.795178 33.828932 33.862761 33.896666
33.930643 33.964691 33.998806 34.032984 34.067220 34.101510 34.135845 34.170219
34.204624 34.239051 34.273490 34.307931 34.342361 34.376769 34.411140 34.445461
34.479716 34.513888 34.547961 34.581916 34.615735 34.649397 34.682881 34.716167
34.749230 34.782049 34.814598 34.846853 34.878788 34.910377 34.941592 34.972407
35.002792 35.032720 35.062161 35.091086 35.119464 35.147267 35.174464 35.201025
35.226920 35.252118 35.276590 35.300306 35.323236 35.345353 35.366627 35.387031
35.406538 35.425122 35.442757 35.459418 35.475084 35.489731 35.503338 35.515886
35.527357 35.537734 35.547002 35.555146 35.562154 35.568017 35.572725 35.576271
35.578650 35.579859 35.579896 35.578760 35.576455 35.572983 35.568350 35.562563
35.555632 35.547568 35.538381 35.528087 35.516702 35.504241 35.490725 35.476171
35.460603 35.444042 35.426511 35.408036 35.388642 35.368354 35.347202 35.325212
35.302413 35.278834 35.254505 35.229456 35.203716 35.177316 35.150287 35.122659
35.094462 35.065725 35.036481 35.006757 34.976583 34.945989 34.915002 34.883649
34.851960 34.819959 34.787673 34.755127 34.722346 34.689352 34.656170 34.622819
34.589323 34.555700 34.521970 34.488151 34.454261 34.420315 34.386331 34.352320
34.318299 34.284279 34.250272 34.216288 34.182339 34.148432 34.114576 34.080778
34.047044 34.013381 33.979794 33.946285 33.912858 33.879517 33.846263 33.813097
33.780019 33.747030 33.714129 33.681315 33.648585 33.615938 33.583371 33.550879
33.518461 33.486112 33.453827 33.421601 33.389430 33.357308 33.325229 33.293188
33.261179 33.229195 33.197230 33.165279 33.133333
33.511111 33.554772 33.598440 33.642125 33.685833 33.729572 33.773350 33.817174
33.861051 33.904988 33.948992 33.993068 34.037221 34.081458 34.125783 34.170200
34.214712 34.259322 34.304034 34.348847 34.393764 34.438783 34.483906 34.529128
34.574449 34.619865 34.665371 34.710963 34.756633 34.802374 34.848178 34.894035
34.939934 34.985864 35.031811 35.077761 35.123699 35.169607 35.215468 35.261263
35.306971 35.352570 35.398038 35.443350 35.488482 35.533405 35.578093 35.622517
35.666646 35.710449 35.753894 35.796947 35.839575 35.881742 35.923412 35.964547
36.005111 36.045065 36.084371 36.122988 36.160878 36.198000 36.234314 36.269779
36.304356 36.338004 36.370683 36.402353 36.432975 36.462511 36.490923 36.518173
36.544225 36.569045 36.592598 36.614852 36.635775 36.655339 36.673514 36.690275
36.705597 36.719458 36.731837 36.742716 36.752078 36.759909 36.766198 36.770935
36.774113 36.775728 36.775776 36.774260 36.771180 36.766542 36.760353 36.752623
36.743364 36.732592 36.720321 36.706571 36.691362 36.674718 36.656664 36.637225
36.616431 36.594311 36.570897 36.546222 36.520319 36.493225 36.464976 36.435609
36.405162 36.373675 36.341186 36.307737 36.273366 36.238116 36.202026 36.165137
36.127489 36.089123 36.050079 36.010397 35.970115 35.929272 35.887906 35.846056
35.803755 35.761040 35.717946 35.674507 35.630754 35.586720 35.542434 35.497926
35.453224 35.408355 35.363344 35.318216 35.272994 35.227700 35.182354 35.136976
35.091583 35.046194 35.000823 34.955485 34.910193 34.864959 34.819794 34.774708
34.729708 34.684804 34.640000 34.595304 34.550718 34.506246 34.461891 34.417654
34.373537 34.329538 34.285657 34.241892 34.198241 34.154701 34.111267 34.067936
34.024703 33.981561 33.938506 33.895530 33.852627 33.809791 33.767012 33.724283
33.681598 33.638946 33.596320 33.553711 33.511111
33.888889 33.943476 33.998073 34.052690 34.107336 34.162022 34.216757 34.271550
34.326409 34.381344 34.436363 34.491472 34.546680 34.601992 34.657415 34.712954
34.768613 34.824396 34.880306 34.936345 34.992513 35.048812 35.105240 35.161796
35.218476 35.275275 35.332189 35.389212 35.446334 35.503547 35.560839 35.618200
35.675616 35.733071 35.790550 35.848034 35.905505 35.962941 36.020320 36.077618
36.134809 36.191867 36.248762 36.305465 36.361942 36.418163 36.474090 36.529689
36.584921 36.639747 36.694127 36.748020 36.801381 36.854167 36.906333 36.957833
37.008619 37.058643 37.107857 37.156211 37.203656 37.250141 37.295616 37.340030
37.383332 37.425473 37.466401 37.506068 37.544423 37.581419 37.617007 37.651141
37.683776 37.714868 37.744374 37.772253 37.798466 37.822976 37.845747 37.866746
37.885943 37.903309 37.918819 37.932449 37.944179 37.953992 37.961872 37.967807
37.971789 37.973812 37.973873 37.971972 37.968113 37.962301 37.954547 37.944861
37.933260 37.919762 37.904387 37.887159 37.868104 37.847251 37.824631 37.800278
37.774227 37.746515 37.717183 37.686271 37.653824 37.619884 37.584498 37.547714
37.509578 37.470140 37.429450 37.387557 37.344513 37.300367 37.255172 37.208977
37.161835 37.113795 37.064908 37.015223 36.964791 36.913657 36.861872 36.809479
36.756527 36.703058 36.649117 36.594745 36.539984 36.484871 36.429447 36.373746
36.317805 36.261656 36.205332 36.148863 36.092280 36.035607 35.978872 35.922099
35.865310 35.808526 35.751768 35.695052 35.638395 35.581813 35.525319 35.468925
35.412642 35.356478 35.300443 35.244542 35.188781 35.133165 35.077696 35.022375
34.967206 34.912185 34.857314 34.802588 34.748006 34.693563 34.639255 34.585075
34.531018 34.477077 34.423244 34.369512 34.315871 34.262313 34.208828 34.155407
34.102038 34.048713 33.995420 33.942149 33.888889
34.266667 34.332188 34.397720 34.463277 34.528870 34.594511 34.660210 34.725980
34.791831 34.857772 34.923815 34.989968 35.056239 35.122638 35.189170 35.255842
35.322661 35.389629 35.456752 35.524030 35.591467 35.659061 35.726812 35.794718
35.862776 35.930979 35.999322 36.067796 36.136394 36.205102 36.273909 36.342800
36.411759 36.480769 36.549810 36.618859 36.687896 36.756893 36.825825 36.894663
36.963375 37.031930 37.100292 37.168426 37.236294 37.303854 37.371066 37.437886
37.504269 37.570166 37.635531 37.700312 37.764459 37.827916 37.890632 37.952549
38.013611 38.073759 38.132937 38.191082 38.248138 38.304041 38.358732 38.412150
38.464233 38.514920 38.564152 38.611867 38.658007 38.702513 38.745328 38.786395
38.825660 38.863069 38.898571 38.932116 38.963658 38.993151 39.020552 39.045822
39.068924 39.089823 39.108488 39.124891 39.139008 39.150817 39.160300 39.167443
39.172236 39.174670 39.174743 39.172455 39.167810 39.160815 39.151482 39.139826
39.125864 39.109619 39.091115 39.070383 39.047451 39.022357 38.995137 38.965832
38.934484 38.901139 38.865845 38.828653 38.789613 38.748780 38.706208 38.661955
38.616078 38.568637 38.519691 38.469301 38.417527 38.364432 38.310076 38.254521
38.197829 38.140060 38.081275 38.021534 37.960895 37.899418 37.837159 37.774174
37.710518 37.646246 37.581407 37.516055 37.450236 37.384000 37.317391 37.250454
37.183230 37.115761 37.048084 36.980237 36.912253 36.844166 36.776007 36.707805
36.639586 36.571377 36.503201 36.435079 36.367030 36.299074 36.231225 36.163500
36.095909 36.028465 35.961176 35.894052 35.827098 35.760319 35.693719 35.627300
35.561062 35.495006 35.429130 35.363431 35.297905 35.232549 35.167354 35.102316
35.037426 34.972676 34.908057 34.843559 34.779172 34.714885 34.650686 34.586564
34.522506 34.458501 34.394534 34.330594 34.266667
34.644444 34.720908 34.797386 34.873892 34.950440 35.027044 35.103718 35.180474
35.257326 35.334285 35.411363 35.488571 35.565918 35.643416 35.721070 35.798891
35.876883 35.955053 36.033404 36.111940 36.190662 36.269571 36.348666 36.427944
36.507401 36.587032 36.666828 36.746782 36.826881 36.907114 36.987465 37.067918
37.148454 37.229052 37.309690 37.390344 37.470984 37.551584 37.632111 37.712531
37.792809 37.872908 37.952786 38.032401 38.111709 38.190663 38.269213 38.347310
38.424900 38.501928 38.578336 38.654067 38.729060 38.803252 38.876580 38.948979
39.020381 39.090720 39.159926 39.227931 39.294663 39.360052 39.424025 39.486513
39.547442 39.606742 39.664341 39.720170 39.774157 39.826235 39.876336 39.924394
39.970344 40.014125 40.055675 40.094937 40.131855 40.166375 40.198449 40.228029
40.255071 40.279535 40.301385 40.320587 40.337113 40.350938 40.362039 40.370402
40.376012 40.378861 40.378947 40.376268 40.370829 40.362640 40.351713 40.338067
40.321722 40.302704 40.281043 40.256772 40.229929 40.200554 40.168691 40.134389
40.097698 40.058670 40.017363 39.973834 39.928146 39.880360 39.830543 39.778760
39.725080 39.669572 39.612306 39.553352 39.492784 39.430672 39.367090 39.302108
39.235799 39.168234 39.099485 39.029621 38.958713 38.886826 38.814031 38.740390
38.665970 38.590832 38.515038 38.438646 38.361715 38.284298 38.206452 38.128225
38.049668 37.970828 37.891750 37.812476 37.733048 37.653503 37.573878 37.494206
37.414520 37.334847 37.255218 37.175654 37.096182 37.016819 36.937587 36.858500
36.779575 36.700824 36.622258 36.543886 36.465717 36.387753 36.310002 36.232464
36.155142 36.078033 36.001136 35.924448 35.847965 35.771680 35.695587 35.619677
35.543942 35.468372 35.392956 35.317683 35.242540 35.167515 35.092593 35.017762
34.943007 34.868312 34.793664 34.719047 34.644444
35.022222 35.109638 35.197071 35.284536 35.372050 35.459629 35.547288 35.635043
35.722907 35.810896 35.899022 35.987297 36.075735 36.164346 36.253139 36.342123
36.431307 36.520695 36.610294 36.700107 36.790137 36.880383 36.970845 37.061519
37.152403 37.243488 37.334768 37.426230 37.517864 37.609654 37.701585 37.793635
37.885787 37.978014 38.070292 38.162591 38.254882 38.347131 38.439302 38.531356
38.623253 38.714949 38.806399 38.897553 38.988362 39.078770 39.168723 39.258161
39.347025 39.435249 39.522772 39.609523 39.695434 39.780434 39.864449 39.947404
40.029224 40.109830 40.189144 40.267084 40.343571 40.418523 40.491858 40.563492
40.633346 40.701334 40.767377 40.831392 40.893301 40.953022 41.010480 41.065596
41.118299 41.168515 41.216175 41.261212 41.303561 41.343162 41.379958 41.413893
41.444918 41.472986 41.498055 41.520087 41.539048 41.554910 41.567648 41.577243
41.583680 41.586949 41.587047 41.583972 41.577731 41.568334 41.555796 41.540137
41.521382 41.499561 41.474708 41.446861 41.416063 41.382362 41.345808 41.306456
41.264365 41.219596 41.172213 41.122286 41.069882 41.015077 40.957943 40.898559
40.837002 40.773352 40.707689 40.640097 40.570656 40.499450 40.426562 40.352075
40.276071 40.198634 40.119843 40.039780 39.958524 39.876155 39.792747 39.708378
39.623121 39.537047 39.450227 39.362728 39.274617 39.185957 39.096808 39.007231
38.917280 38.827012 38.736476 38.645722 38.554796 38.463743 38.372602 38.281414
38.190214 38.099036 38.007910 37.916867 37.825930 37.735126 37.644473 37.553994
37.463702 37.373614 37.283741 37.194095 37.104683 37.015512 36.926586 36.837908
36.749478 36.661297 36.573361 36.485667 36.398208 36.310980 36.223972 36.137178
36.050584 35.964181 35.877956 35.791896 35.705986 35.620212 35.534557 35.449007
35.363544 35.278152 35.192812 35.107508 35.022222
35.400000 35.498380 35.596779 35.695215 35.793707 35.892272 35.990929 36.089694
36.188584 36.287616 36.386804 36.486164 36.585707 36.685448 36.785396 36.885563
36.985957 37.086585 37.187453 37.288567 37.389927 37.491535 37.593391 37.695491
37.797830 37.900401 38.003196 38.106202 38.209406 38.312793 38.416342 38.520034
38.623843 38.727745 38.831710 38.935706 39.039698 39.143650 39.247520 39.351267
39.454842 39.558199 39.661284 39.764045 39.866421 39.968355 40.069781 40.170636
40.270849 40.370350 40.469064 40.566918 40.663830 40.759721 40.854508 40.948107
41.040431 41.131393 41.220901 41.308868 41.395199 41.479804 41.562589 41.643461
41.722326 41.799092 41.873665 41.945954 42.015867 42.083315 42.148209 42.210465
42.269995 42.326720 42.380560 42.431440 42.479285 42.524027 42.565601 42.603945
42.639001 42.670717 42.699045 42.723942 42.745369 42.763294 42.777689 42.788531
42.795805 42.799500 42.799609 42.796134 42.789081 42.778460 42.764290 42.746593
42.725398 42.700738 42.672653 42.641185 42.606385 42.568304 42.527002 42.482540
42.434985 42.384406 42.330878 42.274477 42.215284 42.153379 42.088849 42.021779
41.952261 41.880383 41.806238 41.729917 41.651516 41.571126 41.488844 41.404761
41.318974 41.231572 41.142652 41.052301 40.960611 40.867671 40.773567 40.678385
40.582208 40.485117 40.387192 40.288508 40.189141 40.089161 39.988640 39.887640
39.786229 39.684465 39.582408 39.480111 39.377628 39.275007 39.172297 39.069538
38.966773 38.864038 38.761370 38.658799 38.556356 38.454067 38.351956 38.250044
38.148350 38.046890 37.945679 37.844727 37.744044 37.643636 37.543509 37.443665
37.344106 37.244828 37.145832 37.047111 36.948659 36.850469 36.752531 36.654834
36.557367 36.460117 36.363069 36.266208 36.169519 36.072984 35.976585 35.880304
35.784123 35.688022 35.591981 35.495980 35.400000
35.777778 35.887135 35.996512 36.105932 36.215414 36.324979 36.434647 36.544437
36.654368 36.764458 36.874725 36.985184 37.095851 37.206739 37.317863 37.429232
37.540858 37.652748 37.764911 37.877349 37.990067 38.103066 38.216345 38.329901
38.443729 38.557821 38.672169 38.786757 38.901573 39.016597 39.131811 39.247189
39.362707 39.478334 39.594040 39.709787 39.825540 39.941254 40.056888 40.172390
40.287713 40.402799 40.517594 40.632033 40.746057 40.859594 40.972576 41.084930
41.196579 41.307442 41.417440 41.526486 41.634493 41.741370 41.847026 41.951365
42.054293 42.155709 42.255514 42.353606 42.449884 42.544243 42.636581 42.726790
42.814769 42.900411 42.983614 43.064272 43.142287 43.217555 43.289979 43.359460
43.425906 43.489223 43.549324 43.606122 43.659536 43.709488 43.755905 43.798717
43.837860 43.873274 43.904906 43.932708 43.956635 43.976652 43.992727 44.004835
44.012958 44.017083 44.017205 44.013323 44.005445 43.993584 43.977758 43.957995
43.934325 43.906787 43.875423 43.840285 43.801425 43.758906 43.712790 43.663150
43.610058 43.553594 43.493840 43.430883 43.364811 43.295718 43.223699 43.148852
43.071276 42.991073 42.908345 42.823198 42.735734 42.646061 42.554281 42.460503
42.364828 42.267364 42.168212 42.067474 41.965251 41.861644 41.756746 41.650657
41.543467 41.435268 41.326146 41.216191 41.105481 40.994100 40.882122 40.769623
40.656672 40.543340 40.429687 40.315779 40.201670 40.087418 39.973072 39.858683
39.744294 39.629948 39.515683 39.401535 39.287536 39.173717 39.060101 38.946715
38.833578 38.720709 38.608121 38.495829 38.383840 38.272166 38.160807 38.049770
37.939054 37.828657 37.718576 37.608806 37.499339 37.390168 37.281279 37.172664
37.064306 36.956193 36.848306 36.740631 36.633148 36.525839 36.418682 36.311659
36.204748 36.097926 35.991172 35.884464 35.777778
36.155556 36.275902 36.396273 36.516690 36.637176 36.757756 36.878449 36.999280
37.120267 37.241433 37.362794 37.484372 37.606181 37.728238 37.850557 37.973152
38.096033 38.219211 38.342692 38.466484 38.590589 38.715010 38.839745 38.964792
39.090146 39.215798 39.341737 39.467951 39.594422 39.721133 39.848059 39.975177
40.102456 40.229866 40.357371 40.484933 40.612509 40.740055 40.867519 40.994853
41.121995 41.248891 41.375473 41.501677 41.627430 41.752661 41.877289 42.001235
42.124414 42.246740 42.368119 42.488461 42.607666 42.725636 42.842267 42.957457
43.071097 43.183080 43.293293 43.401625 43.507962 43.612190 43.714191 43.813853
43.911056 44.005688 44.097629 44.186768 44.272990 44.356184 44.436239 44.513047
44.586504 44.656508 44.722958 44.785762 44.844826 44.900066 44.951398 44.998745
45.042037 45.081206 45.116193 45.146944 45.173411 45.195552 45.213334 45.226727
45.235712 45.240275 45.240408 45.236113 45.227398 45.214275 45.196768 45.174905
45.148722 45.118260 45.083569 45.044702 45.001723 44.954696 44.903696 44.848799
44.790089 44.727652 44.661583 44.591975 44.518929 44.442548 44.362938 44.280207
44.194467 44.105829 44.014410 43.920322 43.823685 43.724612 43.623224 43.519634
43.413962 43.306320 43.196825 43.085588 42.972723 42.858337 42.742540 42.625436
42.507130 42.387719 42.267304 42.145976 42.023831 41.900952 41.777429 41.653341
41.528767 41.403780 41.278454 41.152854 41.027047 40.901089 40.775041 40.648953
40.522877 40.396857 40.270937 40.145154 40.019545 39.894142 39.768974 39.644066
39.519442 39.395119 39.271116 39.147444 39.024116 38.901138 38.778518 38.656255
38.534353 38.412808 38.291618 38.170774 38.050270 37.930094 37.810236 37.690681
37.571414 37.452420 37.333679 37.215173 37.096882 36.978783 36.860856 36.743077
36.625422 36.507867 36.390388 36.272959 36.155556
36.533333 36.664685 36.796062 36.927491 37.058998 37.190607 37.322343 37.454229
37.586291 37.718549 37.851025 37.983739 38.116712 38.249958 38.383497 38.517340
38.651503 38.785995 38.920825 39.055999 39.191524 39.327400 39.463628 39.600203
39.737123 39.874376 40.011953 40.149837 40.288015 40.426461 40.565156 40.704068
40.843170 40.982424 41.121794 41.261237 41.400709 41.540157 41.679532 41.818772
41.957820 42.096608 42.235068 42.373125 42.510705 42.647724 42.784099 42.919740
43.054557 43.188450 43.321324 43.453072 43.583591 43.712768 43.840496 43.966655
44.091131 44.213802 44.334549 44.453245 44.569767 44.683988 44.795782 44.905019
45.011574 45.115316 45.216121 45.313860 45.408409 45.499644 45.587445 45.671691
45.752268 45.829061 45.901963 45.970866 46.035673 46.096284 46.152612 46.204570
46.252080 46.295067 46.333466 46.367216 46.396265 46.420567 46.440084 46.454785
46.464646 46.469654 46.469799 46.465084 46.455515 46.441110 46.421893 46.397894
46.369154 46.335719 46.297642 46.254986 46.207816 46.156208 46.100241 46.040002
45.975582 45.907079 45.834593 45.758231 45.678102 45.594323 45.507006 45.416276
45.322251 45.225059 45.124824 45.021674 44.915737 44.807142 44.696017 44.582492
44.466693 44.348750 44.228786 44.106928 43.983297 43.858015 43.731198 43.602964
43.473425 43.342692 43.210870 43.078065 42.944375 42.809900 42.674730 42.538956
42.402662 42.265933 42.128843 41.991468 41.853877 41.716137 41.578307 41.440449
41.302613 41.164853 41.027211 40.889732 40.752454 40.615412 40.478636 40.342156
40.205994 40.070173 39.934708 39.799617 39.664908 39.530591 39.396671 39.263151
39.130031 38.997309 38.864979 38.733036 38.601468 38.470266 38.339414 38.208900
38.078704 37.948810 37.819197 37.689843 37.560727 37.431825 37.303111 37.174561
37.046149 36.917848 36.789630 36.661467 36.533333
36.911111 37.053483 37.195883 37.338340 37.480882 37.623537 37.766331 37.909292
38.052445 38.195815 38.339425 38.483299 38.627455 38.771916 38.916697 39.061817
39.207287 39.353123 39.499331 39.645922 39.792900 39.940268 40.088026 40.236172
40.384699 40.533600 40.682860 40.832468 40.982403 41.132644 41.283163 41.433933
41.584920 41.736087 41.887391 42.038791 42.190233 42.341667 42.493032 42.644269
42.795310 42.946085 43.096517 43.246530 43.396037 43.544953 43.693182 43.840632
43.987198 44.132780 44.277266 44.420546 44.562503 44.703019 44.841970 44.979233
45.114677 45.248174 45.379588 45.508787 45.635631 45.759985 45.881707 46.000660
46.116702 46.229694 46.339495 46.445969 46.548975 46.648382 46.744053 46.835861
46.923675 47.007373 47.086835 47.161945 47.232593 47.298673 47.360085 47.416737
47.468540 47.515415 47.557288 47.594093 47.625772 47.652275 47.673559 47.689591
47.700346 47.705806 47.705963 47.700819 47.690382 47.674670 47.653709 47.627535
47.596190 47.559726 47.518202 47.471685 47.420250 47.363977 47.302955 47.237279
47.167050 47.092372 47.013361 46.930129 46.842800 46.751497 46.656351 46.557490
46.455052 46.349170 46.239985 46.127635 46.012262 45.894004 45.773006 45.649405
45.523345 45.394961 45.264394 45.131778 44.997249 44.860935 44.722970 44.583476
44.442580 44.300399 44.157052 44.012649 43.867303 43.721115 43.574191 43.426624
43.278510 43.129936 42.980987 42.831742 42.682280 42.532668 42.382976 42.233265
42.083595 41.934018 41.784586 41.635342 41.486331 41.337587 41.189147 41.041037
40.893287 40.745915 40.598943 40.452385 40.306253 40.160556 40.015299 39.870485
39.726114 39.582181 39.438683 39.295610 39.152953 39.010698 38.868830 38.727333
38.586187 38.445373 38.304868 38.164649 38.024691 37.884967 37.745452 37.606117
37.466932 37.327870 37.188899 37.049990 36.911111
37.288889 37.442297 37.595736 37.749237 37.902832 38.056549 38.210421 38.364474
38.518738 38.673240 38.828006 38.983059 39.138424 39.294122 39.450174 39.606595
39.763404 39.920613 40.078234 40.236275 40.394744 40.553642 40.712973 40.872731
41.032913 41.193508 41.354507 41.515890 41.677640 41.839733 42.002142 42.164835
42.327778 42.490929 42.654246 42.817679 42.981177 43.144680 43.308129 43.471454
43.634587 43.797448 43.959960 44.122033 44.283581 44.444506 44.604711 44.764089
44.922533 45.079929 45.236161 45.391105 45.544639 45.696631 45.846950 45.995458
46.142018 46.286486 46.428719 46.568568 46.705887 46.840523 46.972327 47.101145
47.226825 47.349214 47.468161 47.583514 47.695123 47.802841 47.906522 48.006023
48.101207 48.191935 48.278079 48.359511 48.436111 48.507762 48.574358 48.635793
48.691975 48.742813 48.788229 48.828149 48.862511 48.891258 48.914346 48.931736
48.943401 48.949323 48.949493 48.943910 48.932586 48.915541 48.892801 48.864407
48.830405 48.790852 48.745811 48.695358 48.639572 48.578544 48.512369 48.441152
48.365002 48.284037 48.198376 48.108150 48.013489 47.914531 47.811414 47.704284
47.593286 47.478571 47.360287 47.238589 47.113627 46.985559 46.854534 46.720708
46.584233 46.445261 46.303939 46.160420 46.014844 45.867358 45.718100 45.567209
45.414817 45.261055 45.106049 44.949923 44.792792 44.634773 44.475973 44.316500
44.156452 43.995927 43.835013 43.673799 43.512365 43.350791 43.189144 43.027496
42.865906 42.704436 42.543135 42.382056 42.221240 42.060730 41.900560 41.740763
41.581364 41.422390 41.263858 41.105786 40.948185 40.791064 40.634429 40.478283
40.322622 40.167447 40.012747 39.858516 39.704739 39.551405 39.398495 39.245991
39.093873 38.942118 38.790700 38.639597 38.488778 38.338217 38.187883 38.037746
37.887774 37.737936 37.588198 37.438526 37.288889
37.666667 37.831127 37.995622 38.160185 38.324849 38.489649 38.654615 38.819780
38.985175 39.150830 39.316772 39.483030 39.649627 39.816589 39.983937 40.151691
40.319867 40.488483 40.657550 40.827080 40.997077 41.167548 41.338493 41.509912
41.681797 41.854141 42.026929 42.200148 42.373773 42.547784 42.722149 42.896837
43.071808 43.247023 43.422432 43.597987 43.773627 43.949295 44.124922 44.300438
44.475765 44.650823 44.825524 44.999777 45.173484 45.346545 45.518850 45.690291
45.860745 46.030096 46.198214 46.364970 46.530227 46.693848 46.855686 47.015598
47.173430 47.329031 47.482242 47.632907 47.780862 47.925947 48.067995 48.206843
48.342324 48.474274 48.602526 48.726918 48.847286 48.963469 49.075309 49.182653
49.285346 49.383243 49.476200 49.564081 49.646752 49.724090 49.795975 49.862294
49.922945 49.977831 50.026864 50.069966 50.107068 50.138108 50.163038 50.181815
50.194411 50.200804 50.200986 50.194956 50.182726 50.164316 50.139760 50.109097
50.072381 50.029671 49.981040 49.926566 49.866339 49.800455 49.729021 49.652148
49.569958 49.482576 49.390137 49.292778 49.190643 49.083881 48.972646 48.857091
48.737379 48.613669 48.486127 48.354916 48.220205 48.082158 47.940944 47.796727
47.649675 47.499949 47.347715 47.193128 47.036351 46.877533 46.716831 46.554389
46.390355 46.224866 46.058061 45.890069 45.721021 45.551036 45.380236 45.208730
45.036630 44.864034 44.691045 44.517752 44.344245 44.170603 43.996908 43.823227
43.649631 43.476179 43.302931 43.129935 42.957244 42.784894 42.612929 42.441378
42.270273 42.099637 41.929492 41.759853 41.590734 41.422143 41.254087 41.086566
40.919580 40.753123 40.587189 40.421766 40.256841 40.092398 39.928420 39.764884
39.601770 39.439050 39.276701 39.114692 38.952995 38.791577 38.630408 38.469452
38.308677 38.148047 37.987526 37.827078 37.666667
38.044444 38.219975 38.395543 38.571185 38.746937 38.922836 39.098917 39.275213
39.451760 39.628589 39.805732 39.983217 40.161073 40.339325 40.517999 40.697114
40.876692 41.056748 41.237299 41.418353 41.599922 41.782008 41.964616 42.147742
42.331384 42.515529 42.700167 42.885280 43.070848 43.256843 43.443237 43.629993
43.817075 44.004434 44.192025 44.379789 44.567670 44.755599 44.943510 45.131322
45.318957 45.506326 45.693339 45.879895 46.065893 46.251220 46.435766 46.619407
46.802020 46.983472 47.163632 47.342353 47.519495 47.694905 47.868431 48.039912
48.209189 48.376094 48.540460 48.702114 48.860885 49.016594 49.169066 49.318121
49.463582 49.605267 49.743001 49.876603 50.005899 50.130714 50.250878 50.366221
50.476580 50.581794 50.681709 50.776176 50.865051 50.948198 51.025488 51.096800