# vtk DataFile Version 3.0
Steady-state temperature (Jacobi)
ASCII
DATASET STRUCTURED_POINTS
DIMENSIONS 181 181 1
ORIGIN 0.0 0.0 0.0
SPACING 0.05 0.05 1.0
POINT_DATA 32761
SCALARS Temperature float 1
LOOKUP_TABLE default
32.000000 32.000000 32.000000 32.000000 32.000000 32.000000 32.000000 32.000000
32.000000 32.000000 32.000000 32.000000 32.000000 32.000000 32.000000 32.000000
32.000000 32.000000 32.000000 32.000000 32.000000 32.000000 32.000000 32.000000
32.000000 32.000000 32.000000 32.000000 32.000000 32.000000 32.000000 32.000000
32.000000 32.000000 32.000000 32.000000 32.000000 32.000000 32.000000 32.000000
32.000000 32.000000 32.000000 32.000000 32.000000 32.000000 32.000000 32.000000
32.000000 32.000000 32.000000 32.000000 32.000000 32.000000 32.000000 32.000000
32.000000 32.000000 32.000000 32.000000 32.000000 32.000000 32.000000 32.000000
32.000000 32.000000 32.000000 32.000000 32.000000 32.000000 32.000000 32.000000
32.000000 32.000000 32.000000 32.000000 32.000000 32.000000 32.000000 32.000000
32.000000 32.000000 32.000000 32.000000 32.000000 32.000000 32.000000 32.000000
32.000000 32.000000 32.000000 32.000000 32.000000 32.000000 32.000000 32.000000
32.000000 32.000000 32.000000 32.000000 32.000000 32.000000 32.000000 32.000000
32.000000 32.000000 32.000000 32.000000 32.000000 32.000000 32.000000 32.000000
32.000000 32.000000 32.000000 32.000000 32.000000 32.000000 32.000000 32.000000
32.000000 32.000000 32.000000 32.000000 32.000000 32.000000 32.000000 32.000000
32.000000 32.000000 32.000000 32.000000 32.000000 32.000000 32.000000 32.000000
32.000000 32.000000 32.000000 32.000000 32.000000 32.000000 32.000000 32.000000
32.000000 32.000000 32.000000 32.000000 32.000000 32.000000 32.000000 32.000000
32.000000 32.000000 32.000000 32.000000 32.000000 32.000000 32.000000 32.000000
32.000000 32.000000 32.000000 32.000000 32.000000 32.000000 32.000000 32.000000
32.000000 32.000000 32.000000 32.000000 32.000000 32.000000 32.000000 32.000000
32.000000 32.000000 32.000000 32.000000 32.000000
32.377778 32.360393 32.343066 32.325855 32.308814 32.291998 32.275460 32.259249
32.243411 32.227989 32.213023 32.198546 32.184589 32.171180 32.158337 32.146080
32.134420 32.123364 32.112916 32.103077 32.093840 32.085198 32.077140 32.069651
32.062714 32.056309 32.050417 32.045013 32.040073 32.035574 32.031488 32.027792
32.024458 32.021461 32.018776 32.016378 32.014245 32.012353 32.010680 32.009206
32.007912 32.006780 32.005793 32.004934 32.004191 32.003549 32.002997 32.002523
32.002119 32.001774 32.001482 32.001236 32.001028 32.000854 32.000708 32.000587
32.000487 32.000405 32.000338 32.000283 32.000239 32.000203 32.000175 32.000154
32.000137 32.000124 32.000115 32.000109 32.000105 32.000103 32.000102 32.000103
32.000104 32.000107 32.000109 32.000113 32.000116 32.000120 32.000123 32.000127
32.000130 32.000133 32.000136 32.000139 32.000142 32.000144 32.000145 32.000147
32.000148 32.000148 32.000148 32.000147 32.000147 32.000145 32.000144 32.000141
32.000139 32.000136 32.000133 32.000130 32.000126 32.000123 32.000119 32.000115
32.000111 32.000108 32.000105 32.000102 32.000099 32.000098 32.000097 32.000098
32.000100 32.000104 32.000111 32.000120 32.000133 32.000149 32.000172 32.000200
32.000235 32.000280 32.000335 32.000402 32.000485 32.000585 32.000706 32.000852
32.001026 32.001234 32.001481 32.001773 32.002118 32.002522 32.002996 32.003548
32.004190 32.004934 32.005792 32.006780 32.007912 32.009206 32.010680 32.012352
32.014245 32.016378 32.018775 32.021460 32.024457 32.027792 32.031488 32.035574
32.040073 32.045013 32.050417 32.056309 32.062714 32.069651 32.077140 32.085198
32.093840 32.103077 32.112916 32.123364 32.134420 32.146080 32.158337 32.171180
32.184589 32.198546 32.213023 32.227989 32.243411 32.259249 32.275460 32.291998
32.308814 32.325855 32.343066 32.360393 32.377778
32.755556 32.720786 32.686133 32.651709 32.617627 32.583996 32.550920 32.518498
32.486822 32.455979 32.426045 32.397092 32.369179 32.342359 32.316675 32.292160
32.268839 32.246728 32.225833 32.206153 32.187680 32.170396 32.154279 32.139301
32.125427 32.112619 32.100833 32.090025 32.080147 32.071147 32.062977 32.055583
32.048915 32.042921 32.037551 32.032757 32.028490 32.024706 32.021360 32.018413
32.015825 32.013561 32.011586 32.009869 32.008382 32.007098 32.005994 32.005047
32.004238 32.003550 32.002966 32.002472 32.002057 32.001709 32.001418 32.001176
32.000977 32.000812 32.000678 32.000568 32.000480 32.000410 32.000354 32.000311
32.000278 32.000253 32.000235 32.000223 32.000215 32.000211 32.000210 32.000212
32.000215 32.000220 32.000226 32.000233 32.000240 32.000247 32.000255 32.000262
32.000270 32.000276 32.000283 32.000288 32.000293 32.000298 32.000301 32.000304
32.000306 32.000307 32.000307 32.000306 32.000304 32.000301 32.000297 32.000293
32.000288 32.000282 32.000276 32.000269 32.000261 32.000254 32.000246 32.000238
32.000230 32.000223 32.000216 32.000210 32.000205 32.000202 32.000200 32.000201
32.000205 32.000213 32.000225 32.000244 32.000269 32.000302 32.000346 32.000402
32.000473 32.000562 32.000671 32.000806 32.000971 32.001171 32.001413 32.001705
32.002053 32.002469 32.002963 32.003547 32.004236 32.005045 32.005992 32.007096
32.008380 32.009868 32.011584 32.013560 32.015824 32.018412 32.021359 32.024705
32.028489 32.032756 32.037551 32.042921 32.048915 32.055583 32.062977 32.071147
32.080146 32.090025 32.100833 32.112619 32.125427 32.139301 32.154279 32.170396
32.187680 32.206153 32.225833 32.246728 32.268839 32.292160 32.316675 32.342359
32.369179 32.397092 32.426045 32.455979 32.486822 32.518498 32.550920 32.583996
32.617627 32.651709 32.686133 32.720786 32.755556
33.133333 33.081180 33.029199 32.977564 32.926441 32.875994 32.826380 32.777747
32.730233 32.683968 32.639068 32.595637 32.553768 32.513539 32.475012 32.438240
32.403259 32.370092 32.338749 32.309230 32.281519 32.255594 32.231419 32.208952
32.188141 32.168928 32.151250 32.135038 32.120220 32.106721 32.094466 32.083375
32.073373 32.064382 32.056327 32.049135 32.042735 32.037059 32.032041 32.027620
32.023738 32.020342 32.017379 32.014804 32.012574 32.010649 32.008992 32.007572
32.006359 32.005327 32.004451 32.003711 32.003089 32.002567 32.002131 32.001769
32.001470 32.001224 32.001022 32.000859 32.000727 32.000623 32.000539 32.000475
32.000426 32.000390 32.000364 32.000347 32.000336 32.000331 32.000331 32.000334
32.000340 32.000348 32.000358 32.000369 32.000380 32.000393 32.000405 32.000417
32.000428 32.000439 32.000449 32.000458 32.000466 32.000473 32.000478 32.000483
32.000486 32.000487 32.000487 32.000485 32.000483 32.000478 32.000473 32.000466
32.000458 32.000448 32.000438 32.000427 32.000415 32.000403 32.000390 32.000377
32.000365 32.000353 32.000342 32.000332 32.000324 32.000317 32.000315 32.000315
32.000320 32.000331 32.000349 32.000375 32.000413 32.000462 32.000527 32.000610
32.000716 32.000848 32.001013 32.001214 32.001461 32.001761 32.002124 32.002560
32.003082 32.003706 32.004446 32.005322 32.006355 32.007569 32.008989 32.010646
32.012571 32.014802 32.017377 32.020340 32.023737 32.027619 32.032040 32.037058
32.042734 32.049135 32.056327 32.064382 32.073372 32.083375 32.094465 32.106721
32.120220 32.135038 32.151250 32.168928 32.188141 32.208952 32.231419 32.255594
32.281519 32.309230 32.338749 32.370092 32.403259 32.438240 32.475012 32.513539
32.553768 32.595637 32.639068 32.683968 32.730233 32.777747 32.826380 32.875994
32.926441 32.977564 33.029199 33.081180 33.133333
33.511111 33.441573 33.372266 33.303418 33.235255 33.167992 33.101840 33.036995
32.973644 32.911957 32.852090 32.794183 32.738358 32.684718 32.633350 32.584320
32.537678 32.493455 32.451666 32.412306 32.375359 32.340792 32.308559 32.278603
32.250854 32.225237 32.201667 32.180051 32.160293 32.142295 32.125954 32.111167
32.097831 32.085843 32.075104 32.065514 32.056981 32.049412 32.042722 32.036828
32.031652 32.027124 32.023174 32.019741 32.016768 32.014201 32.011993 32.010100
32.008483 32.007106 32.005940 32.004954 32.004124 32.003429 32.002849 32.002367
32.001969 32.001642 32.001375 32.001158 32.000984 32.000845 32.000736 32.000651
32.000588 32.000540 32.000508 32.000486 32.000474 32.000469 32.000470 32.000476
32.000486 32.000499 32.000514 32.000530 32.000547 32.000565 32.000583 32.000600
32.000617 32.000632 32.000647 32.000660 32.000672 32.000681 32.000690 32.000696
32.000700 32.000702 32.000702 32.000700 32.000695 32.000689 32.000681 32.000671
32.000659 32.000646 32.000631 32.000615 32.000598 32.000580 32.000562 32.000543
32.000525 32.000507 32.000490 32.000476 32.000462 32.000453 32.000447 32.000446
32.000451 32.000464 32.000486 32.000520 32.000568 32.000633 32.000718 32.000828
32.000967 32.001143 32.001360 32.001628 32.001956 32.002356 32.002838 32.003419
32.004115 32.004946 32.005932 32.007100 32.008477 32.010094 32.011988 32.014196
32.016764 32.019738 32.023171 32.027121 32.031650 32.036826 32.042720 32.049411
32.056980 32.065513 32.075103 32.085842 32.097830 32.111167 32.125954 32.142295
32.160293 32.180050 32.201666 32.225237 32.250854 32.278602 32.308559 32.340792
32.375359 32.412306 32.451666 32.493455 32.537678 32.584320 32.633350 32.684718
32.738358 32.794183 32.852090 32.911957 32.973644 33.036995 33.101840 33.167992
33.235255 33.303418 33.372266 33.441573 33.511111
33.888889 33.801966 33.715332 33.629273 33.544068 33.459990 33.377300 33.296244
33.217055 33.139946 33.065113 32.992729 32.922947 32.855898 32.791687 32.730400
32.672098 32.616819 32.564582 32.515383 32.469199 32.425990 32.385699 32.348253
32.313568 32.281547 32.252083 32.225063 32.200367 32.177869 32.157443 32.138959
32.122289 32.107305 32.093880 32.081894 32.071227 32.061767 32.053404 32.046036
32.039567 32.033907 32.028970 32.024680 32.020963 32.017755 32.014995 32.012630
32.010609 32.008890 32.007432 32.006201 32.005165 32.004298 32.003574 32.002973
32.002477 32.002070 32.001737 32.001468 32.001252 32.001082 32.000947 32.000845
32.000767 32.000711 32.000672 32.000648 32.000635 32.000633 32.000637 32.000648
32.000663 32.000682 32.000703 32.000727 32.000750 32.000776 32.000800 32.000824
32.000847 32.000869 32.000889 32.000908 32.000924 32.000937 32.000948 32.000957
32.000963 32.000965 32.000965 32.000962 32.000957 32.000948 32.000937 32.000923
32.000907 32.000888 32.000868 32.000845 32.000822 32.000797 32.000772 32.000745
32.000720 32.000695 32.000671 32.000649 32.000631 32.000615 32.000605 32.000600
32.000605 32.000617 32.000643 32.000682 32.000740 32.000818 32.000923 32.001057
32.001230 32.001447 32.001718 32.002051 32.002460 32.002957 32.003559 32.004284
32.005153 32.006190 32.007422 32.008881 32.010601 32.012622 32.014989 32.017749
32.020958 32.024675 32.028966 32.033903 32.039564 32.046034 32.053401 32.061764
32.071225 32.081892 32.093879 32.107303 32.122288 32.138959 32.157442 32.177869
32.200366 32.225063 32.252083 32.281547 32.313568 32.348253 32.385699 32.425990
32.469199 32.515383 32.564582 32.616819 32.672098 32.730400 32.791687 32.855898
32.922947 32.992729 33.065113 33.139946 33.217055 33.296244 33.377300 33.459990
33.544068 33.629273 33.715332 33.801966 33.888889
34.266667 34.162359 34.058398 33.955127 33.852882 33.751988 33.652760 33.555493
33.460466 33.367936 33.278136 33.191275 33.107537 33.027077 32.950025 32.876480
32.806517 32.740183 32.677498 32.618459 32.563039 32.511188 32.462839 32.417904
32.376282 32.337856 32.302500 32.270076 32.240441 32.213444 32.188932 32.166752
32.146748 32.128766 32.112657 32.098274 32.085474 32.074122 32.064087 32.055246
32.047484 32.040692 32.034768 32.029620 32.025161 32.021312 32.018002 32.015164
32.012741 32.010679 32.008931 32.007455 32.006214 32.005174 32.004308 32.003589
32.002996 32.002510 32.002114 32.001794 32.001539 32.001336 32.001180 32.001059
32.000971 32.000907 32.000865 32.000840 32.000830 32.000830 32.000841 32.000858
32.000881 32.000908 32.000939 32.000970 32.001005 32.001038 32.001072 32.001104
32.001136 32.001165 32.001193 32.001217 32.001239 32.001257 32.001272 32.001284
32.001291 32.001295 32.001295 32.001291 32.001283 32.001272 32.001257 32.001238
32.001216 32.001192 32.001164 32.001134 32.001101 32.001069 32.001033 32.000999
32.000963 32.000929 32.000895 32.000865 32.000837 32.000815 32.000797 32.000788
32.000788 32.000800 32.000825 32.000869 32.000933 32.001025 32.001146 32.001305
32.001508 32.001766 32.002088 32.002486 32.002973 32.003568 32.004288 32.005156
32.006197 32.007440 32.008917 32.010667 32.012730 32.015154 32.017993 32.021304
32.025154 32.029614 32.034763 32.040687 32.047480 32.055243 32.064084 32.074119
32.085472 32.098272 32.112656 32.128765 32.146746 32.166751 32.188931 32.213443
32.240440 32.270076 32.302500 32.337856 32.376282 32.417904 32.462839 32.511188
32.563039 32.618459 32.677498 32.740183 32.806517 32.876480 32.950025 33.027077
33.107537 33.191275 33.278136 33.367936 33.460466 33.555493 33.652760 33.751988
33.852882 33.955127 34.058398 34.162359 34.266667
34.644444 34.522752 34.401465 34.280982 34.161695 34.043986 33.928220 33.814742
33.703877 33.595925 33.491158 33.389821 33.292126 33.198257 33.108362 33.022560
32.940937 32.863547 32.790415 32.721536 32.656879 32.596386 32.539979 32.487555
32.438996 32.394166 32.352917 32.315090 32.280515 32.249018 32.220422 32.194545
32.171207 32.150229 32.131435 32.114655 32.099722 32.086478 32.074771 32.064458
32.055402 32.047479 32.040569 32.034564 32.029363 32.024874 32.021013 32.017704
32.014878 32.012475 32.010437 32.008718 32.007272 32.006062 32.005054 32.004220
32.003531 32.002968 32.002510 32.002142 32.001847 32.001617 32.001438 32.001304
32.001206 32.001139 32.001095 32.001073 32.001066 32.001075 32.001092 32.001120
32.001153 32.001192 32.001233 32.001278 32.001323 32.001370 32.001414 32.001459
32.001500 32.001540 32.001575 32.001609 32.001637 32.001662 32.001681 32.001697
32.001707 32.001712 32.001712 32.001707 32.001696 32.001681 32.001661 32.001636
32.001608 32.001574 32.001538 32.001497 32.001455 32.001410 32.001364 32.001316
32.001269 32.001222 32.001177 32.001134 32.001096 32.001062 32.001036 32.001017
32.001012 32.001018 32.001043 32.001087 32.001158 32.001257 32.001395 32.001574
32.001808 32.002104 32.002475 32.002935 32.003501 32.004191 32.005029 32.006038
32.007251 32.008698 32.010420 32.012458 32.014864 32.017691 32.021001 32.024863
32.029354 32.034556 32.040562 32.047473 32.055397 32.064453 32.074767 32.086474
32.099719 32.114652 32.131433 32.150227 32.171205 32.194543 32.220421 32.249017
32.280514 32.315089 32.352917 32.394166 32.438995 32.487555 32.539978 32.596386
32.656879 32.721536 32.790415 32.863547 32.940937 33.022560 33.108362 33.198257
33.292126 33.389821 33.491158 33.595925 33.703877 33.814742 33.928220 34.043986
34.161695 34.280982 34.401465 34.522752 34.644444
35.022222 34.883146 34.744531 34.606836 34.470509 34.335985 34.203680 34.073991
33.947288 33.823914 33.704181 33.588367 33.476716 33.369436 33.266700 33.168640
33.075357 32.986911 32.903331 32.824613 32.750719 32.681585 32.617119 32.557206
32.501710 32.450476 32.403335 32.360103 32.320589 32.284593 32.251912 32.222338
32.195667 32.171692 32.150214 32.131037 32.113971 32.098836 32.085457 32.073671
32.063323 32.054269 32.046373 32.039511 32.033569 32.028440 32.024030 32.020250
32.017024 32.014279 32.011954 32.009992 32.008344 32.006964 32.005817 32.004867
32.004086 32.003447 32.002930 32.002515 32.002186 32.001929 32.001733 32.001586
32.001483 32.001413 32.001374 32.001356 32.001359 32.001376 32.001408 32.001447
32.001496 32.001548 32.001607 32.001666 32.001728 32.001788 32.001849 32.001906
32.001963 32.002014 32.002062 32.002105 32.002143 32.002175 32.002201 32.002221
32.002234 32.002241 32.002241 32.002234 32.002220 32.002201 32.002174 32.002142
32.002103 32.002061 32.002012 32.001960 32.001903 32.001844 32.001782 32.001720
32.001656 32.001594 32.001532 32.001474 32.001419 32.001373 32.001332 32.001304
32.001286 32.001286 32.001304 32.001348 32.001419 32.001526 32.001674 32.001874
32.002134 32.002466 32.002884 32.003405 32.004046 32.004831 32.005783 32.006934
32.008315 32.009966 32.011930 32.014258 32.017004 32.020233 32.024014 32.028427
32.033557 32.039501 32.046364 32.054261 32.063316 32.073665 32.085452 32.098831
32.113967 32.131034 32.150211 32.171690 32.195664 32.222337 32.251910 32.284592
32.320588 32.360102 32.403334 32.450475 32.501709 32.557205 32.617118 32.681584
32.750719 32.824613 32.903331 32.986911 33.075357 33.168640 33.266699 33.369436
33.476716 33.588367 33.704181 33.823914 33.947288 34.073991 34.203680 34.335985
34.470509 34.606836 34.744531 34.883146 35.022222
35.400000 35.243539 35.087598 34.932691 34.779323 34.627983 34.479140 34.333240
34.190699 34.051903 33.917203 33.786913 33.661305 33.540616 33.425037 33.314720
33.209776 33.110275 33.016248 32.927690 32.844559 32.766783 32.694259 32.626857
32.564424 32.506786 32.453752 32.405117 32.360664 32.320169 32.283402 32.250133
32.220127 32.193156 32.168994 32.147420 32.128222 32.111196 32.096146 32.082888
32.071247 32.061063 32.052182 32.044464 32.037781 32.032014 32.027054 32.022806
32.019178 32.016095 32.013483 32.011281 32.009430 32.007885 32.006600 32.005538
32.004665 32.003956 32.003381 32.002923 32.002561 32.002283 32.002071 32.001919
32.001812 32.001747 32.001712 32.001707 32.001721 32.001755 32.001801 32.001861
32.001927 32.002002 32.002078 32.002160 32.002240 32.002322 32.002400 32.002478
32.002549 32.002618 32.002680 32.002737 32.002785 32.002828 32.002862 32.002888
32.002905 32.002914 32.002914 32.002905 32.002888 32.002861 32.002827 32.002784
32.002735 32.002678 32.002616 32.002546 32.002473 32.002394 32.002315 32.002231
32.002148 32.002063 32.001983 32.001903 32.001830 32.001762 32.001706 32.001658
32.001628 32.001614 32.001624 32.001659 32.001730 32.001838 32.001997 32.002210
32.002495 32.002859 32.003322 32.003899 32.004615 32.005490 32.006556 32.007844
32.009394 32.011246 32.013453 32.016067 32.019154 32.022783 32.027034 32.031995
32.037765 32.044450 32.052169 32.061052 32.071238 32.082879 32.096139 32.111190
32.128217 32.147416 32.168990 32.193153 32.220124 32.250130 32.283400 32.320167
32.360662 32.405116 32.453751 32.506785 32.564423 32.626856 32.694258 32.766783
32.844559 32.927689 33.016248 33.110275 33.209776 33.314720 33.425037 33.540616
33.661305 33.786912 33.917203 34.051903 34.190699 34.333240 34.479140 34.627983
34.779323 34.932691 35.087598 35.243539 35.400000
35.777778 35.603932 35.430664 35.258545 35.088136 34.919981 34.754600 34.592489
34.434110 34.279893 34.130226 33.985458 33.845895 33.711795 33.583375 33.460800
33.344196 33.233639 33.129165 33.030766 32.938399 32.851981 32.771399 32.696508
32.627138 32.563096 32.504170 32.450131 32.400739 32.355745 32.314894 32.277928
32.244589 32.214622 32.187776 32.163806 32.142476 32.123558 32.106837 32.092107
32.079176 32.067861 32.057996 32.049423 32.042000 32.035595 32.030089 32.025371
32.021347 32.017925 32.015029 32.012587 32.010539 32.008828 32.007410 32.006237
32.005279 32.004498 32.003872 32.003373 32.002986 32.002687 32.002468 32.002311
32.002210 32.002150 32.002131 32.002139 32.002175 32.002227 32.002300 32.002381
32.002475 32.002573 32.002679 32.002783 32.002892 32.002997 32.003102 32.003200
32.003297 32.003384 32.003466 32.003538 32.003603 32.003657 32.003702 32.003735
32.003758 32.003769 32.003769 32.003758 32.003735 32.003702 32.003656 32.003602
32.003537 32.003464 32.003381 32.003293 32.003196 32.003096 32.002989 32.002882
32.002770 32.002662 32.002551 32.002448 32.002346 32.002256 32.002172 32.002105
32.002051 32.002022 32.002014 32.002041 32.002101 32.002210 32.002369 32.002596
32.002897 32.003292 32.003794 32.004427 32.005211 32.006176 32.007352 32.008777
32.010491 32.012544 32.014989 32.017890 32.021314 32.025343 32.030062 32.035572
32.041979 32.049405 32.057980 32.067847 32.079163 32.092097 32.106828 32.123550
32.142469 32.163800 32.187771 32.214618 32.244585 32.277925 32.314891 32.355743
32.400737 32.450129 32.504169 32.563095 32.627138 32.696508 32.771399 32.851981
32.938399 33.030766 33.129164 33.233639 33.344196 33.460800 33.583374 33.711795
33.845895 33.985458 34.130226 34.279893 34.434110 34.592489 34.754600 34.919981
35.088136 35.258545 35.430664 35.603932 35.777778
36.155556 35.964325 35.773730 35.584400 35.396950 35.211979 35.030060 34.851738
34.677521 34.507882 34.343249 34.184004 34.030484 33.882975 33.741712 33.606881
33.478616 33.357003 33.242081 33.133843 33.032239 32.937180 32.848540 32.766160
32.689853 32.619407 32.554588 32.495146 32.440815 32.391322 32.346386 32.305724
32.269052 32.236089 32.206559 32.180193 32.156731 32.135924 32.117532 32.101332
32.087109 32.074666 32.063816 32.054390 32.046228 32.039188 32.033135 32.027952
32.023530 32.019774 32.016594 32.013918 32.011673 32.009803 32.008250 32.006975
32.005930 32.005088 32.004411 32.003881 32.003468 32.003160 32.002934 32.002784
32.002689 32.002648 32.002645 32.002680 32.002738 32.002823 32.002922 32.003040
32.003163 32.003299 32.003434 32.003577 32.003715 32.003856 32.003989 32.004121
32.004242 32.004358 32.004462 32.004558 32.004640 32.004711 32.004768 32.004812
32.004841 32.004855 32.004855 32.004840 32.004811 32.004767 32.004710 32.004639
32.004556 32.004460 32.004356 32.004238 32.004116 32.003983 32.003848 32.003704
32.003563 32.003416 32.003275 32.003133 32.003002 32.002874 32.002763 32.002661
32.002584 32.002525 32.002499 32.002503 32.002553 32.002650 32.002810 32.003039
32.003357 32.003773 32.004313 32.004994 32.005846 32.006894 32.008178 32.009734
32.011612 32.013861 32.016544 32.019727 32.023489 32.027914 32.033102 32.039157
32.046202 32.054367 32.063796 32.074648 32.087093 32.101318 32.117521 32.135913
32.156723 32.180186 32.206553 32.236083 32.269047 32.305720 32.346382 32.391319
32.440812 32.495144 32.554587 32.619406 32.689852 32.766159 32.848539 32.937179
33.032239 33.133843 33.242081 33.357003 33.478615 33.606880 33.741712 33.882975
34.030484 34.184004 34.343249 34.507882 34.677521 34.851738 35.030060 35.211979
35.396950 35.584400 35.773730 35.964325 36.155556
36.533333 36.324719 36.116797 35.910254 35.705764 35.503977 35.305520 35.110986
34.920932 34.735871 34.556271 34.382550 34.215074 34.054155 33.900050 33.752961
33.613036 33.480367 33.354998 33.236920 33.126080 33.022379 32.925680 32.835812
32.752568 32.675718 32.605007 32.540161 32.480891 32.426899 32.377879 32.333521
32.293516 32.257558 32.225345 32.196583 32.170991 32.148293 32.128232 32.110561
32.095049 32.081477 32.069646 32.059367 32.050469 32.042793 32.036197 32.030549
32.025734 32.021644 32.018187 32.015276 32.012841 32.010811 32.009135 32.007755
32.006636 32.005731 32.005016 32.004454 32.004029 32.003712 32.003494 32.003350
32.003278 32.003257 32.003287 32.003349 32.003448 32.003566 32.003711 32.003865
32.004036 32.004210 32.004395 32.004576 32.004762 32.004939 32.005117 32.005282
32.005443 32.005589 32.005726 32.005846 32.005955 32.006044 32.006119 32.006174
32.006212 32.006230 32.006230 32.006212 32.006173 32.006118 32.006043 32.005953
32.005845 32.005724 32.005586 32.005439 32.005276 32.005109 32.004930 32.004750
32.004560 32.004375 32.004185 32.004004 32.003823 32.003658 32.003500 32.003364
32.003244 32.003155 32.003093 32.003075 32.003099 32.003184 32.003330 32.003561
32.003882 32.004320 32.004886 32.005614 32.006524 32.007655 32.009039 32.010726
32.012761 32.015205 32.018121 32.021586 32.025680 32.030502 32.036154 32.042755
32.050435 32.059337 32.069620 32.081455 32.095028 32.110544 32.128217 32.148280
32.170979 32.196574 32.225336 32.257551 32.293510 32.333516 32.377875 32.426896
32.480888 32.540158 32.605005 32.675717 32.752567 32.835811 32.925679 33.022378
33.126079 33.236920 33.354998 33.480367 33.613035 33.752961 33.900049 34.054155
34.215074 34.382550 34.556271 34.735871 34.920932 35.110986 35.305520 35.503977
35.705764 35.910254 36.116797 36.324719 36.533333
36.911111 36.685112 36.459863 36.236109 36.014577 35.795975 35.580980 35.370235
35.164343 34.963861 34.769294 34.581096 34.399664 34.225334 34.058387 33.899041
33.747455 33.603732 33.467915 33.339998 33.219920 33.107578 33.002821 32.905464
32.815284 32.732030 32.655427 32.585177 32.520969 32.462478 32.409374 32.361321
32.317983 32.279030 32.244133 32.212977 32.185254 32.160668 32.138938 32.119798
32.102996 32.088299 32.075486 32.064357 32.054723 32.046416 32.039277 32.033170
32.027962 32.023544 32.019810 32.016673 32.014047 32.011868 32.010067 32.008597
32.007401 32.006448 32.005694 32.005116 32.004679 32.004371 32.004161 32.004044
32.003995 32.004014 32.004077 32.004189 32.004329 32.004504 32.004694 32.004909
32.005129 32.005366 32.005599 32.005842 32.006075 32.006312 32.006534 32.006753
32.006954 32.007147 32.007318 32.007477 32.007612 32.007730 32.007823 32.007896
32.007943 32.007967 32.007967 32.007943 32.007895 32.007822 32.007729 32.007610
32.007475 32.007316 32.007143 32.006950 32.006747 32.006526 32.006302 32.006062
32.005825 32.005578 32.005338 32.005094 32.004865 32.004638 32.004433 32.004239
32.004076 32.003935 32.003837 32.003775 32.003772 32.003825 32.003958 32.004172
32.004497 32.004940 32.005533 32.006294 32.007262 32.008464 32.009949 32.011756
32.013948 32.016579 32.019728 32.023468 32.027895 32.033108 32.039224 32.046366
32.054680 32.064318 32.075453 32.088269 32.102971 32.119775 32.138919 32.160651
32.185239 32.212965 32.244123 32.279020 32.317976 32.361314 32.409368 32.462474
32.520965 32.585174 32.655424 32.732028 32.815282 32.905462 33.002820 33.107577
33.219920 33.339997 33.467915 33.603731 33.747455 33.899041 34.058387 34.225334
34.399663 34.581096 34.769294 34.963861 35.164343 35.370235 35.580980 35.795975
36.014577 36.236109 36.459863 36.685112 36.911111
37.288889 37.045505 36.802930 36.561963 36.323391 36.087973 35.856440 35.629484
35.407754 35.191850 34.982317 34.779642 34.584253 34.396514 34.216725 34.045121
33.881875 33.727096 33.580832 33.443075 33.313761 33.192777 33.079963 32.975116
32.878000 32.788342 32.705847 32.630194 32.561048 32.498059 32.440870 32.389122
32.342452 32.300504 32.262926 32.229375 32.199522 32.173048 32.149651 32.129042
32.110954 32.095131 32.081340 32.069361 32.058996 32.050058 32.042383 32.035815
32.030223 32.025478 32.021475 32.018112 32.015308 32.012979 32.011067 32.009505
32.008250 32.007249 32.006474 32.005880 32.005453 32.005153 32.004974 32.004884
32.004883 32.004942 32.005066 32.005228 32.005438 32.005670 32.005936 32.006212
32.006511 32.006809 32.007122 32.007426 32.007736 32.008031 32.008325 32.008598
32.008863 32.009103 32.009328 32.009525 32.009703 32.009849 32.009971 32.010062
32.010124 32.010154 32.010154 32.010124 32.010061 32.009971 32.009848 32.009701
32.009523 32.009326 32.009099 32.008858 32.008592 32.008317 32.008020 32.007722
32.007408 32.007099 32.006780 32.006473 32.006164 32.005875 32.005593 32.005341
32.005106 32.004913 32.004751 32.004646 32.004591 32.004612 32.004707 32.004907
32.005214 32.005662 32.006264 32.007058 32.008068 32.009341 32.010912 32.012840
32.015177 32.017996 32.021367 32.025383 32.030135 32.035739 32.042312 32.049997
32.058940 32.069313 32.081297 32.095094 32.110921 32.129014 32.149626 32.173027
32.199504 32.229360 32.262912 32.300493 32.342443 32.389114 32.440863 32.498053
32.561043 32.630190 32.705843 32.788340 32.877997 32.975115 33.079961 33.192776
33.313760 33.443074 33.580831 33.727095 33.881875 34.045121 34.216725 34.396514
34.584253 34.779642 34.982317 35.191850 35.407754 35.629484 35.856440 36.087973
36.323391 36.561963 36.802930 37.045505 37.288889
37.666667 37.405898 37.145996 36.887818 36.632205 36.379971 36.131900 35.888733
35.651166 35.419839 35.195339 34.978188 34.768843 34.567694 34.375063 34.191202
34.016295 33.850461 33.693749 33.546153 33.407602 33.277977 33.157105 33.044770
32.940716 32.844656 32.756268 32.675212 32.601128 32.533641 32.472369 32.416926
32.366925 32.321983 32.281723 32.245779 32.213797 32.185436 32.160372 32.138298
32.118923 32.101979 32.087210 32.074386 32.063290 32.053727 32.045516 32.038497
32.032519 32.027458 32.023187 32.019610 32.016627 32.014165 32.012142 32.010506
32.009192 32.008164 32.007368 32.006783 32.006364 32.006101 32.005953 32.005921
32.005968 32.006100 32.006285 32.006532 32.006812 32.007138 32.007479 32.007854
32.008231 32.008630 32.009021 32.009424 32.009810 32.010199 32.010564 32.010922
32.011251 32.011565 32.011845 32.012103 32.012322 32.012514 32.012665 32.012783
32.012860 32.012900 32.012900 32.012860 32.012783 32.012664 32.012513 32.012321
32.012100 32.011842 32.011561 32.011246 32.010915 32.010555 32.010187 32.009795
32.009404 32.008996 32.008598 32.008190 32.007802 32.007414 32.007055 32.006708
32.006401 32.006121 32.005896 32.005714 32.005606 32.005565 32.005624 32.005779
32.006069 32.006498 32.007108 32.007915 32.008967 32.010292 32.011950 32.013984
32.016466 32.019459 32.023054 32.027334 32.032411 32.038397 32.045429 32.053648
32.063221 32.074324 32.087157 32.101931 32.118882 32.138262 32.160341 32.185409
32.213774 32.245759 32.281706 32.321968 32.366913 32.416915 32.472360 32.533633
32.601122 32.675207 32.756264 32.844652 32.940714 33.044767 33.157103 33.277975
33.407601 33.546151 33.693748 33.850460 34.016295 34.191201 34.375062 34.567694
34.768843 34.978188 35.195339 35.419839 35.651165 35.888733 36.131900 36.379971
36.632205 36.887818 37.145996 37.405898 37.666667
38.044444 37.766291 37.489062 37.213672 36.941018 36.671969 36.407360 36.147982
35.894577 35.647829 35.408362 35.176734 34.953433 34.738874 34.533401 34.337282
34.150716 33.973825 33.806667 33.649230 33.501444 33.363177 33.234247 33.114423
33.003434 32.900970 32.806691 32.720232 32.641210 32.569225 32.503871 32.444733
32.391401 32.343466 32.300526 32.262189 32.228080 32.197833 32.171105 32.147566
32.126909 32.108843 32.093102 32.079433 32.067613 32.057426 32.048688 32.041217
32.034867 32.029488 32.024963 32.021173 32.018029 32.015433 32.013320 32.011610
32.010261 32.009206 32.008418 32.007842 32.007464 32.007236 32.007156 32.007180
32.007315 32.007520 32.007808 32.008141 32.008535 32.008954 32.009418 32.009890
32.010393 32.010892 32.011408 32.011909 32.012417 32.012898 32.013376 32.013819