# vtk DataFile Version 3.0
Steady-state temperature (Jacobi)
ASCII
DATASET STRUCTURED_POINTS
DIMENSIONS 181 181 1
ORIGIN 0.0 0.0 0.0
SPACING 0.05 0.05 1.0
POINT_DATA 32761
SCALARS Temperature float 1
LOOKUP_TABLE default
32.000000 32.000000 32.000000 32.000000 32.000000 32.000000 32.000000 32.000000
32.000000 32.000000 32.000000 32.000000 32.000000 32.000000 32.000000 32.000000
32.000000 32.000000 32.000000 32.000000 32.000000 32.000000 32.000000 32.000000
32.000000 32.000000 32.000000 32.000000 32.000000 32.000000 32.000000 32.000000
32.000000 32.000000 32.000000 32.000000 32.000000 32.000000 32.000000 32.000000
32.000000 32.000000 32.000000 32.000000 32.000000 32.000000 32.000000 32.000000
32.000000 32.000000 32.000000 32.000000 32.000000 32.000000 32.000000 32.000000
32.000000 32.000000 32.000000 32.000000 32.000000 32.000000 32.000000 32.000000
32.000000 32.000000 32.000000 32.000000 32.000000 32.000000 32.000000 32.000000
32.000000 32.000000 32.000000 32.000000 32.000000 32.000000 32.000000 32.000000
32.000000 32.000000 32.000000 32.000000 32.000000 32.000000 32.000000 32.000000
32.000000 32.000000 32.000000 32.000000 32.000000 32.000000 32.000000 32.000000
32.000000 32.000000 32.000000 32.000000 32.000000 32.000000 32.000000 32.000000
32.000000 32.000000 32.000000 32.000000 32.000000 32.000000 32.000000 32.000000
32.000000 32.000000 32.000000 32.000000 32.000000 32.000000 32.000000 32.000000
32.000000 32.000000 32.000000 32.000000 32.000000 32.000000 32.000000 32.000000
32.000000 32.000000 32.000000 32.000000 32.000000 32.000000 32.000000 32.000000
32.000000 32.000000 32.000000 32.000000 32.000000 32.000000 32.000000 32.000000
32.000000 32.000000 32.000000 32.000000 32.000000 32.000000 32.000000 32.000000
32.000000 32.000000 32.000000 32.000000 32.000000 32.000000 32.000000 32.000000
32.000000 32.000000 32.000000 32.000000 32.000000 32.000000 32.000000 32.000000
32.000000 32.000000 32.000000 32.000000 32.000000 32.000000 32.000000 32.000000
32.000000 32.000000 32.000000 32.000000 32.000000
32.377778 32.382934 32.388095 32.393268 32.398456 32.403667 32.408905 32.414175
32.419483 32.424833 32.430231 32.435681 32.441188 32.446757 32.452391 32.458095
32.463873 32.469728 32.475664 32.481684 32.487791 32.493988 32.500275 32.506658
32.513135 32.519710 32.526382 32.533154 32.540023 32.546992 32.554059 32.561225
32.568485 32.575842 32.583289 32.590828 32.598454 32.606164 32.613953 32.621819
32.629755 32.637759 32.645821 32.653940 32.662106 32.670314 32.678556 32.686825
32.695112 32.703410 32.711708 32.720000 32.728273 32.736521 32.744730 32.752893
32.760996 32.769031 32.776985 32.784849 32.792609 32.800255 32.807774 32.815156
32.822387 32.829458 32.836355 32.843068 32.849584 32.855893 32.861982 32.867842
32.873462 32.878831 32.883938 32.888775 32.893333 32.897602 32.901573 32.905241
32.908596 32.911633 32.914344 32.916726 32.918772 32.920479 32.921843 32.922861
32.923532 32.923853 32.923825 32.923446 32.922719 32.921644 32.920223 32.918460
32.916358 32.913921 32.911154 32.908063 32.904654 32.900933 32.896909 32.892589
32.887981 32.883094 32.877938 32.872521 32.866856 32.860951 32.854818 32.848467
32.841910 32.835158 32.828224 32.821118 32.813853 32.806439 32.798891 32.791217
32.783433 32.775546 32.767572 32.759519 32.751400 32.743225 32.735007 32.726753
32.718477 32.710185 32.701890 32.693599 32.685323 32.677068 32.668844 32.660658
32.652518 32.644429 32.636400 32.628436 32.620543 32.612724 32.604988 32.597335
32.589772 32.582300 32.574925 32.567646 32.560469 32.553392 32.546420 32.539550
32.532787 32.526127 32.519572 32.513121 32.506774 32.500527 32.494381 32.488333
32.482382 32.476523 32.470755 32.465074 32.459477 32.453960 32.448520 32.443152
32.437852 32.432616 32.427439 32.422315 32.417241 32.412210 32.407219 32.402261
32.397330 32.392422 32.387531 32.382652 32.377778
32.755556 32.765872 32.776199 32.786547 32.796929 32.807354 32.817834 32.828379
32.838999 32.849703 32.860504 32.871408 32.882427 32.893569 32.904843 32.916255
32.927817 32.939532 32.951411 32.963456 32.975676 32.988074 33.000658 33.013427
33.026390 33.039545 33.052898 33.066447 33.080195 33.094140 33.108284 33.122620
33.137153 33.151872 33.166779 33.181865 33.197127 33.212555 33.228146 33.243886
33.259772 33.275787 33.291927 33.308174 33.324520 33.340946 33.357444 33.373993
33.390582 33.407189 33.423801 33.440396 33.456959 33.473465 33.489900 33.506237
33.522461 33.538544 33.554469 33.570208 33.585744 33.601049 33.616103 33.630879
33.645358 33.659512 33.673321 33.686759 33.699805 33.712435 33.724627 33.736359
33.747610 33.758358 33.768585 33.778270 33.787395 33.795942 33.803895 33.811237
33.817955 33.824035 33.829465 33.834233 33.838330 33.841748 33.844479 33.846518
33.847861 33.848504 33.848447 33.847690 33.846233 33.844080 33.841236 33.837706
33.833496 33.828618 33.823078 33.816889 33.810063 33.802615 33.794557 33.785907
33.776681 33.766897 33.756573 33.745730 33.734386 33.722565 33.710285 33.697571
33.684443 33.670928 33.657044 33.642819 33.628273 33.613434 33.598321 33.582961
33.567375 33.551590 33.535625 33.519507 33.503253 33.486892 33.470439 33.453920
33.437350 33.420756 33.404150 33.387557 33.370989 33.354469 33.338007 33.321624
33.305329 33.289143 33.273072 33.257133 33.241334 33.225689 33.210203 33.194890
33.179752 33.164802 33.150039 33.135476 33.121110 33.106950 33.092995 33.079251
33.065714 33.052388 33.039271 33.026363 33.013660 33.001162 32.988863 32.976762
32.964852 32.953129 32.941587 32.930221 32.919021 32.907983 32.897098 32.886358
32.875753 32.865276 32.854917 32.844666 32.834513 32.824449 32.814461 32.804541
32.794676 32.784856 32.775071 32.765307 32.755556
33.133333 33.148817 33.164318 33.179852 33.195434 33.211083 33.226813 33.242640
33.258580 33.274649 33.290860 33.307229 33.323768 33.340494 33.357415 33.374549
33.391902 33.409491 33.427320 33.445404 33.463747 33.482361 33.501250 33.520423
33.539881 33.559634 33.579678 33.600023 33.620661 33.641601 33.662834 33.684363
33.706180 33.728285 33.750665 33.773320 33.796235 33.819405 33.842814 33.866455
33.890306 33.914362 33.938596 33.962999 33.987544 34.012219 34.036993 34.061852
34.086764 34.111711 34.136659 34.161589 34.186464 34.211262 34.235946 34.260491
34.284858 34.309022 34.332942 34.356591 34.379928 34.402924 34.425538 34.447741
34.469492 34.490760 34.511506 34.531699 34.551299 34.570278 34.588596 34.606226
34.623131 34.639283 34.654649 34.669204 34.682915 34.695760 34.707710 34.718745
34.728840 34.737977 34.746136 34.753303 34.759460 34.764596 34.768701 34.771765
34.773783 34.774751 34.774665 34.773527 34.771338 34.768103 34.763829 34.758523
34.752199 34.744866 34.736542 34.727241 34.716985 34.705790 34.693683 34.680684
34.666821 34.652117 34.636606 34.620311 34.603267 34.585502 34.567053 34.547948
34.528226 34.507916 34.487059 34.465684 34.443833 34.421535 34.398833 34.375754
34.352343 34.328626 34.304645 34.280428 34.256016 34.231435 34.206723 34.181906
34.157022 34.132092 34.107154 34.082228 34.057347 34.032531 34.007810 33.983201
33.958734 33.934421 33.910289 33.886350 33.862628 33.839130 33.815880 33.792881
33.770153 33.747700 33.725538 33.703666 33.682100 33.660836 33.639886 33.619247
33.598925 33.578916 33.559225 33.539843 33.520775 33.502009 33.483548 33.465379
33.447501 33.429902 33.412577 33.395512 33.378702 33.362131 33.345792 33.329669
33.313752 33.298025 33.282476 33.267088 33.251849 33.236741 33.221750 33.206859
33.192053 33.177313 33.162625 33.147971 33.133333
33.511111 33.531775 33.552462 33.573192 33.593988 33.614872 33.635865 33.656987
33.678262 33.699706 33.721342 33.743188 33.765264 33.787585 33.810172 33.833038
33.856203 33.879676 33.903476 33.927612 33.952100 33.976944 34.002161 34.027752
34.053731 34.080096 34.106860 34.134015 34.161574 34.189525 34.217878 34.246619
34.275752 34.305262 34.335150 34.365397 34.396000 34.426936 34.458200 34.489766
34.521624 34.553745 34.586116 34.618703 34.651491 34.684442 34.717538 34.750738
34.784019 34.817339 34.850671 34.883969 34.917205 34.950330 34.983312 35.016100
35.048662 35.080942 35.112908 35.144502 35.175690 35.206414 35.236638 35.266304
35.295375 35.323794 35.351523 35.378506 35.404705 35.430068 35.454554 35.478115
35.500713 35.522301 35.542843 35.562295 35.580625 35.597793 35.613769 35.628519
35.642015 35.654229 35.665138 35.674717 35.682949 35.689815 35.695303 35.699400
35.702098 35.703392 35.703278 35.701756 35.698830 35.694506 35.688792 35.681701
35.673245 35.663444 35.652316 35.639884 35.626172 35.611211 35.595025 35.577651
35.559118 35.539467 35.518731 35.496954 35.474171 35.450431 35.425769 35.400239
35.373877 35.346738 35.318860 35.290300 35.261095 35.231302 35.200961 35.170127
35.138839 35.107154 35.075108 35.042756 35.010135 34.977299 34.944279 34.911130
34.877882 34.844584 34.811265 34.777974 34.744734 34.711591 34.678567 34.645703
34.613018 34.580552 34.548318 34.516352 34.484667 34.453292 34.422238 34.391531
34.361178 34.331201 34.301603 34.272404 34.243604 34.215218 34.187243 34.159692
34.132557 34.105848 34.079556 34.053686 34.028226 34.003180 33.978532 33.954283
33.930415 33.906926 33.883798 33.861023 33.838583 33.816468 33.794658 33.773141
33.751895 33.730906 33.710152 33.689617 33.669277 33.649116 33.629108 33.609236
33.589475 33.569805 33.550203 33.530646 33.511111
33.888889 33.914749 33.940637 33.966581 33.992606 34.018742 34.045014 34.071450
34.098073 34.124913 34.151990 34.179333 34.206961 34.234900 34.263168 34.291791
34.320783 34.350168 34.379956 34.410172 34.440821 34.471926 34.503490 34.535532
34.568051 34.601064 34.634566 34.668571 34.703070 34.738074 34.773570 34.809565
34.846040 34.883001 34.920424 34.958309 34.996630 35.035381 35.074533 35.114076
35.153974 35.194215 35.234758 35.275586 35.316655 35.357942 35.399400 35.441002
35.482695 35.524449 35.566209 35.607940 35.649582 35.691099 35.732426 35.773524
35.814328 35.854792 35.894852 35.934459 35.973546 36.012066 36.049948 36.087143
36.123582 36.159216 36.193975 36.227811 36.260655 36.292460 36.323159 36.352707
36.381040 36.408113 36.433870 36.458267 36.481251 36.502785 36.522818 36.541319
36.558244 36.573564 36.587244 36.599260 36.609584 36.618197 36.625080 36.630220
36.633604 36.635227 36.635085 36.633177 36.629508 36.624085 36.616919 36.608025
36.597421 36.585128 36.571173 36.555581 36.538387 36.519621 36.499326 36.477535
36.454298 36.429652 36.403653 36.376342 36.347778 36.318006 36.287089 36.255074
36.222027 36.187996 36.153051 36.117240 36.080633 36.043280 36.005251 35.966595
35.927383 35.887662 35.847502 35.806949 35.766071 35.724912 35.683539 35.641991
35.600334 35.558603 35.516861 35.475141 35.433500 35.391969 35.350602 35.309424
35.268485 35.227807 35.187436 35.147388 35.107706 35.068402 35.029514 34.991049
34.953040 34.915492 34.878432 34.841862 34.805803 34.770252 34.735229 34.700725
34.666755 34.633309 34.600396 34.568002 34.536133 34.504773 34.473921 34.443560
34.413687 34.384280 34.355332 34.326821 34.298736 34.271052 34.243757 34.216822
34.190233 34.163962 34.137989 34.112286 34.086832 34.061598 34.036560 34.011689
33.986959 33.962342 33.937811 33.913335 33.888889
34.266667 34.297743 34.328853 34.360029 34.391305 34.422712 34.454285 34.486053
34.518050 34.550303 34.582847 34.615706 34.648913 34.682490 34.716469 34.750868
34.785718 34.821034 34.856845 34.893162 34.930010 34.967397 35.005348 35.043863
35.082964 35.122650 35.162936 35.203817 35.245306 35.287391 35.330081 35.373360
35.417232 35.461676 35.506691 35.552250 35.598349 35.644955 35.692057 35.739618
35.787623 35.836028 35.884813 35.933928 35.983350 36.033022 36.082916 36.132971
36.183154 36.233397 36.283664 36.333884 36.384014 36.433980 36.483736 36.533203
36.582331 36.631041 36.679278 36.726960 36.774030 36.820406 36.866029 36.910814
36.954703 36.997612 37.039481 37.080228 37.119793 37.158097 37.195081 37.230668
37.264804 37.297415 37.328448 37.357836 37.385531 37.411471 37.435612 37.457899
37.478295 37.496752 37.513238 37.527715 37.540157 37.550535 37.558830 37.565023
37.569103 37.571059 37.570888 37.568590 37.564169 37.557636 37.549002 37.538286
37.525509 37.510700 37.493884 37.475100 37.454382 37.431776 37.407322 37.381073
37.353075 37.323389 37.292064 37.259169 37.224757 37.188900 37.151654 37.113098
37.073290 37.032309 36.990217 36.947096 36.903005 36.858031 36.812231 36.765692
36.718471 36.670654 36.622296 36.573481 36.524263 36.474723 36.424912 36.374909
36.324760 36.274542 36.224296 36.174094 36.123975 36.074005 36.024219 35.974678
35.925412 35.876477 35.827898 35.779727 35.731981 35.684708 35.637920 35.591660
35.545935 35.500781 35.456202 35.412227 35.368854 35.326109 35.283985 35.242502
35.201649 35.161440 35.121860 35.082919 35.044598 35.006900 34.969805 34.933312
34.897395 34.862050 34.827249 34.792982 34.759221 34.725950 34.693139 34.660770
34.628810 34.597238 34.566021 34.535133 34.504541 34.474217 34.444126 34.414238
34.384519 34.354937 34.325456 34.296044 34.266667
34.644444 34.680761 34.717116 34.753550 34.790099 34.826804 34.863700 34.900828
34.938220 34.975917 35.013949 35.052356 35.091164 35.130413 35.170125 35.210337
35.251070 35.292357 35.334214 35.376674 35.419747 35.463462 35.507825 35.552863
35.598576 35.644986 35.692088 35.739900 35.788411 35.837636 35.887557 35.938183
35.989490 36.041483 36.094133 36.147436 36.201358 36.255891 36.310992 36.366649
36.422812 36.479461 36.536542 36.594030 36.651862 36.710008 36.768399 36.826999
36.885733 36.944560 37.003400 37.062205 37.120892 37.179406 37.237660 37.295597
37.353123 37.410178 37.466666 37.522523 37.577651 37.631983 37.685421 37.737895
37.789308 37.839588 37.888639 37.936390 37.982746 38.027637 38.070973 38.112685
38.152686 38.190911 38.227280 38.261731 38.294189 38.324599 38.352894 38.379024
38.402931 38.424571 38.443896 38.460871 38.475456 38.487625 38.497350 38.504613
38.509396 38.511690 38.511491 38.508798 38.503617 38.495957 38.485837 38.473275
38.458299 38.440936 38.421227 38.399206 38.374923 38.348422 38.319761 38.288990
38.256178 38.221380 38.184672 38.146115 38.105791 38.063765 38.020125 37.974938
37.928299 37.880275 37.830964 37.780436 37.728790 37.676094 37.622451 37.567927
37.512624 37.456609 37.399980 37.342802 37.285172 37.227151 37.168833 37.110275
37.051568 36.992764 36.933948 36.875170 36.816510 36.758009 36.699745 36.641752
36.584102 36.526826 36.469986 36.413607 36.357748 36.302427 36.247694 36.193564
36.140080 36.087249 36.035109 35.983662 35.932938 35.882935 35.833677 35.785154
35.737385 35.690357 35.644081 35.598539 35.553738 35.509655 35.466291 35.423619
35.381635 35.340309 35.299631 35.259569 35.220108 35.181214 35.142866 35.105028
35.067676 35.030773 34.994290 34.958188 34.922437 34.886995 34.851831 34.816901
34.782171 34.747599 34.713148 34.678776 34.644444
35.022222 35.063806 35.105435 35.147152 35.189004 35.231033 35.273284 35.315797
35.358618 35.401784 35.445341 35.489321 35.533769 35.578715 35.624201 35.670253
35.716912 35.764198 35.812149 35.860781 35.910129 35.960203 36.011035 36.062627
36.115010 36.168179 36.222159 36.276939 36.332540 36.388945 36.446167 36.504183
36.563001 36.622591 36.682954 36.744052 36.805880 36.868395 36.931583 36.995393
37.059806 37.124762 37.190236 37.256161 37.322505 37.389192 37.456185 37.523402
37.590797 37.658283 37.725808 37.793277 37.860634 37.927778 37.994647 38.061136
38.127177 38.192663 38.257520 38.321639 38.384942 38.447318 38.508687 38.568937
38.627987 38.685724 38.742068 38.796906 38.850160 38.901720 38.951509 38.999421
39.045383 39.089295 39.131086 39.170666 39.207967 39.242906 39.275425 39.305449
39.332926 39.357793 39.380006 39.399513 39.416278 39.430264 39.441443 39.449790
39.455289 39.457927 39.457699 39.454606 39.448652 39.439852 39.428221 39.413787
39.396574 39.376625 39.353973 39.328671 39.300765 39.270316 39.237380 39.202029
39.164323 39.124348 39.082169 39.037878 38.991547 38.943275 38.893139 38.841242
38.787665 38.732515 38.675874 38.617854 38.558536 38.498035 38.436430 38.373836
38.310333 38.246034 38.181016 38.115390 38.049230 37.982644 37.915702 37.848509
37.781128 37.713660 37.646164 37.578734 37.511423 37.444321 37.377472 37.310961
37.244825 37.179142 37.113943 37.049298 36.985232 36.921806 36.859039 36.796986
36.735657 36.675101 36.615320 36.556356 36.498206 36.440902 36.384437 36.328836
36.274085 36.220201 36.167166 36.114990 36.063650 36.013150 35.963461 35.914582
35.866479 35.819144 35.772542 35.726659 35.681455 35.636911 35.592985 35.549653
35.506872 35.464612 35.422829 35.381489 35.340545 35.299963 35.259693 35.219697
35.179926 35.140340 35.100891 35.061534 35.022222
35.400000 35.446883 35.493815 35.540850 35.588034 35.635421 35.683055 35.730991
35.779269 35.827944 35.877053 35.926649 35.976766 36.027455 36.078745 36.130686
36.183301 36.236638 36.290715 36.345575 36.401232 36.457725 36.515060 36.573273
36.632363 36.692360 36.753258 36.815082 36.877816 36.941479 37.006049 37.071539
37.137919 37.205193 37.273324 37.342310 37.412105 37.482699 37.554038 37.626104
37.698835 37.772206 37.846146 37.920621 37.995553 38.070900 38.146576 38.222532
38.298673 38.374943 38.451241 38.527504 38.603623 38.679529 38.755107 38.830282
38.904936 38.978987 39.052313 39.124828 39.196406 39.266960 39.336361 39.404519
39.471305 39.536629 39.600362 39.662414 39.722659 39.781008 39.837339 39.891566
39.943574 39.993278 40.040571 40.085375 40.127590 40.167145 40.203952 40.237944
40.269047 40.297203 40.322347 40.344436 40.363416 40.379253 40.391910 40.401363
40.407590 40.410580 40.410323 40.406822 40.400084 40.390121 40.376957 40.360614
40.341132 40.318546 40.292908 40.264263 40.232678 40.198208 40.160932 40.120914
40.078244 40.032994 39.985265 39.935135 39.882713 39.828082 39.771359 39.712633
39.652023 39.589622 39.525554 39.459912 39.392825 39.324384 39.254718 39.183920
39.112117 39.039399 38.965893 38.891684 38.816897 38.741613 38.665953 38.589992
38.513846 38.437585 38.361320 38.285113 38.209068 38.133240 38.057728 37.982578
37.907882 37.833678 37.760050 37.687028 37.614688 37.543054 37.472191 37.402115
37.332884 37.264507 37.197033 37.130462 37.064835 37.000148 36.936430 36.873671
36.811894 36.751081 36.691247 36.632368 36.574453 36.517471 36.461423 36.406275
36.352021 36.298622 36.246065 36.194308 36.143331 36.093089 36.043557 35.994687
35.946448 35.898791 35.851679 35.805062 35.758900 35.713139 35.667737 35.622640
35.577803 35.533170 35.488694 35.444321 35.400000
35.777778 35.829994 35.882266 35.934651 35.987205 36.039982 36.093041 36.146430
36.200209 36.254424 36.309132 36.364375 36.420210 36.476673 36.533820 36.591682
36.650312 36.709734 36.769998 36.831122 36.893154 36.956103 37.020012 37.084885
37.150758 37.217628 37.285524 37.354437 37.424390 37.495362 37.567372 37.640391
37.714428 37.789446 37.865448 37.942385 38.020254 38.098997 38.178599 38.258996
38.340165 38.422029 38.504558 38.587668 38.671317 38.755413 38.839906 38.924695
39.009721 39.094874 39.180089 39.265247 39.350275 39.435048 39.519485 39.603456
39.686873 39.769601 39.851547 39.932571 40.012577 40.091422 40.169005 40.245184
40.319855 40.392876 40.464144 40.533517 40.600893 40.666135 40.729142 40.789782
40.847960 40.903549 40.956458 41.006572 41.053806 41.098054 41.139239 41.177267
41.212073 41.243574 41.271715 41.296429 41.317673 41.335394 41.349561 41.360141
41.367112 41.370459 41.370175 41.366259 41.358720 41.347575 41.332844 41.314562
41.292762 41.267494 41.238805 41.206761 41.171419 41.132861 41.091154 41.046393
40.998655 40.948046 40.894652 40.838590 40.779952 40.718863 40.655422 40.589760
40.521980 40.452218 40.380579 40.307205 40.232200 40.155707 40.077830 39.998714
39.918459 39.837209 39.755063 39.672160 39.588595 39.504504 39.419976 39.335142
39.250084 39.164929 39.079750 38.994668 38.909749 38.825104 38.740792 38.656917
38.573529 38.490722 38.408538 38.327064 38.246330 38.166415 38.087340 38.009175
37.931933 37.855674 37.780402 37.706167 37.632967 37.560841 37.489780 37.419814
37.350926 37.283137 37.216424 37.150799 37.086232 37.022729 36.960252 36.898799
36.838328 36.778830 36.720257 36.662592 36.605786 36.549815 36.494624 36.440185
36.386440 36.333354 36.280870 36.228946 36.177522 36.126554 36.075980 36.025753
35.975810 35.926100 35.876562 35.827141 35.777778
36.155556 36.213143 36.270793 36.328568 36.386529 36.444739 36.503257 36.562146
36.621460 36.681263 36.741604 36.802547 36.864134 36.926429 36.989469 37.053313
37.117992 37.183565 37.250054 37.317513 37.385959 37.455441 37.525967 37.597580
37.670283 37.744110 37.819056 37.895149 37.972375 38.050754 38.130262 38.210913
38.292671 38.375543 38.459483 38.544489 38.630504 38.717518 38.805464 38.894320
38.984010 39.074504 39.165713 39.257598 39.350061 39.443053 39.536465 39.630238
39.724256 39.818449 39.912692 40.006907 40.100960 40.194766 40.288182 40.381116
40.473420 40.564994 40.655685 40.745389 40.833948 40.921253 41.007145 41.091512
41.174193 41.255076 41.334001 41.410854 41.485481 41.557767 41.627565 41.694762
41.759218 41.820825 41.879452 41.934998 41.987341 42.036390 42.082035 42.124195
42.162773 42.197699 42.228893 42.256297 42.279846 42.299498 42.315205 42.326938
42.334669 42.338382 42.338070 42.333731 42.325377 42.313022 42.296695 42.276427
42.252265 42.224253 42.192457 42.156934 42.117767 42.075025 42.028807 41.979193
41.926295 41.870205 41.811046 41.748919 41.683957 41.616267 41.545992 41.473244
41.398173 41.320893 41.241560 41.160289 41.077241 40.992529 40.906314 40.818710
40.729878 40.639926 40.549015 40.457249 40.364783 40.271717 40.178201 40.084329
39.990244 39.896032 39.801830 39.707715 39.613815 39.520200 39.426988 39.334240
39.242065 39.150513 39.059685 38.969621 38.880410 38.792083 38.704721 38.618342
38.533018 38.448758 38.365622 38.283613 38.202777 38.123109 38.044647 37.967375
37.891323 37.816467 37.742826 37.670369 37.599106 37.529001 37.460053 37.392219
37.325493 37.259825 37.195199 37.131563 37.068892 37.007131 36.946248 36.886183
36.826899 36.768333 36.710443 36.653163 36.596445 36.540224 36.484447 36.429046
36.373965 36.319138 36.264504 36.209997 36.155556
36.533333 36.596334 36.659403 36.722609 36.786021 36.849703 36.913728 36.978155
37.043055 37.108484 37.174514 37.241194 37.308593 37.376757 37.445753 37.515618
37.586417 37.658180 37.730969 37.804805 37.879746 37.955805 38.033032 38.111436
38.191058 38.271896 38.353987 38.437319 38.521920 38.607768 38.694883 38.783233
38.872829 38.963627 39.055630 39.148781 39.243075 39.338444 39.434870 39.532276
39.630633 39.729851 39.829893 39.930655 40.032091 40.134087 40.236583 40.339456
40.442636 40.545989 40.649436 40.752834 40.856093 40.959060 41.061640 41.163671
41.265048 41.365605 41.465230 41.563752 41.661053 41.756958 41.851345 41.944040
42.034915 42.123797 42.210557 42.295026 42.377075 42.456537 42.533288 42.607167
42.678054 42.745797 42.810282 42.871368 42.928949 42.982896 43.033114 43.079489
43.121936 43.160358 43.194684 43.224833 43.250749 43.272372 43.289659 43.302570
43.311081 43.315170 43.314829 43.310059 43.300869 43.287280 43.269317 43.247022
43.220438 43.189627 43.154644 43.115572 43.072482 43.025473 42.974630 42.920067
42.861882 42.800203 42.735138 42.666828 42.595389 42.520973 42.443702 42.363737
42.281203 42.196270 42.109064 42.019760 41.928484 41.835414 41.740675 41.644444
41.546846 41.448054 41.348189 41.247423 41.145869 41.043695 40.941008 40.837968
40.734674 40.631281 40.527878 40.424611 40.321560 40.218860 40.116583 40.014854
39.913733 39.813335 39.713710 39.614961 39.517127 39.420301 39.324511 39.229837
39.136297 39.043962 38.952837 38.862982 38.774393 38.687118 38.601144 38.516507
38.433187 38.351208 38.270541 38.191201 38.113151 38.036396 37.960892 37.886634
37.813573 37.741694 37.670941 37.601294 37.532691 37.465102 37.398463 37.332736
37.267854 37.203772 37.140422 37.077751 37.015689 36.954180 36.893150 36.832540
36.772277 36.712296 36.652524 36.592894 36.533333
36.911111 36.979569 37.048102 37.116785 37.185691 37.254896 37.324468 37.394486
37.465013 37.536126 37.607884 37.680363 37.753615 37.827715 37.902708 37.978666
38.055627 38.133658 38.212791 38.293088 38.374570 38.457295 38.541276 38.626563
38.713160 38.801111 38.890407 38.981085 39.073126 39.166558 39.261351 39.357523
39.455032 39.553886 39.654033 39.755469 39.858128 39.961999 40.067000 40.173109
40.280234 40.388340 40.497321 40.607132 40.717655 40.828831 40.940533 41.052689
41.165160 41.277863 41.390649 41.503424 41.616028 41.728358 41.840245 41.951577
42.062176 42.171922 42.280632 42.388179 42.494374 42.599085 42.702122 42.803347
42.902569 42.999648 43.094396 43.186672 43.276290 43.363112 43.446958 43.527693
43.605145 43.679185 43.749653 43.816427 43.879359 43.938337 43.993228 44.043934
44.090336 44.132350 44.169878 44.202850 44.231187 44.254836 44.273740 44.287863
44.297172 44.301647 44.301279 44.296066 44.286022 44.271164 44.251529 44.227153
44.198094 44.164405 44.126166 44.083448 44.036350 43.984958 43.929390 43.869745
43.806160 43.738744 43.667648 43.592994 43.514945 43.433629 43.349220 43.261854
43.171711 43.078932 42.983703 42.886165 42.786510 42.684878 42.581461 42.476398
42.369880 42.262042 42.153073 42.043101 41.932311 41.820825 41.708822 41.596414
41.483773 41.371003 41.258266 41.145656 41.033326 40.921358 40.809895 40.699007
40.588827 40.479412 40.370883 40.263286 40.156729 40.051249 39.946938 39.843821
39.741981 39.641430 39.542237 39.444404 39.347989 39.252982 39.159429 39.067310
38.976659 38.887448 38.799698 38.713373 38.628483 38.544983 38.462873 38.382102
38.302659 38.224486 38.147564 38.071829 37.997251 37.923764 37.851329 37.779874
37.709355 37.639697 37.570848 37.502729 37.435285 37.368434 37.302115 37.236247
37.170761 37.105580 37.040629 36.975832 36.911111
37.288889 37.362852 37.436898 37.511104 37.585555 37.660326 37.735502 37.811154
37.887367 37.964207 38.041757 38.120078 38.199251 38.279331 38.360395 38.442491
38.525694 38.610040 38.695602 38.782409 38.870525 38.959969 39.050801 39.143030
39.236708 39.331832 39.428446 39.526536 39.626138 39.727226 39.829825 39.933896
40.039455 40.146451 40.254887 40.364698 40.475878 40.588347 40.702087 40.817005
40.933069 41.050174 41.168276 41.287255 41.407053 41.527539 41.648641 41.770216
41.892180 42.014377 42.136710 42.259012 42.381176 42.503023 42.624437 42.745229
42.865272 42.984371 43.102390 43.219128 43.334443 43.448128 43.560037 43.669961
43.777749 43.883194 43.986142 44.086389 44.183782 44.278122 44.369258 44.457000
44.541201 44.621681 44.698302 44.770894 44.839331 44.903457 44.963158 45.018296
45.068771 45.114464 45.155289 45.191151 45.221982 45.247707 45.268277 45.283642
45.293774 45.298646 45.298249 45.292584 45.281661 45.265506 45.244149 45.217642
45.186034 45.149401 45.107810 45.061360 45.010137 44.954260 44.893831 44.828988
44.759847 44.686565 44.609268 44.528129 44.443284 44.354918 44.263175 44.168250
44.070293 43.969504 43.866038 43.760102 43.651848 43.541486 43.429168 43.315104
43.199443 43.082391 42.964093 42.844752 42.724504 42.603546 42.482007 42.360077
42.237874 42.115578 41.993298 41.871204 41.749391 41.628021 41.507175 41.387002
41.267572 41.149022 41.031408 40.914852 40.799400 40.685160 40.572165 40.460510
40.350213 40.241357 40.133949 40.028057 39.923677 39.820863 39.719600 39.619930
39.521827 39.425320 39.330373 39.237003 39.145166 39.054866 38.966052 38.878717
38.792800 38.708286 38.625108 38.543240 38.462609 38.383179 38.304875 38.227651
38.151427 38.076152 38.001740 37.928134 37.855248 37.783016 37.711352 37.640184
37.569426 37.499001 37.428824 37.358815 37.288889
37.666667 37.746186 37.825793 37.905577 37.985620 38.066015 38.146840 38.228188
38.310132 38.392764 38.476152 38.560385 38.645525 38.731660 38.818843 38.907158
38.996651 39.087401 39.179444 39.272854 39.367658 39.463923 39.561665 39.660945
39.761765 39.864179 39.968179 40.073807 40.181044 40.289921 40.400405 40.512519
40.626215 40.741502 40.858321 40.976669 41.096469 41.217708 41.340295 41.464202
41.589323 41.715617 41.842964 41.971309 42.100516 42.230518 42.361164 42.492372
42.623980 42.755891 42.887930 43.019987 43.151876 43.283475 43.414587 43.545078
43.674741 43.803434 43.930943 44.057115 44.181732 44.304634 44.425598 44.544461
44.660997 44.775042 44.886370 44.994816 45.100160 45.202237 45.300833 45.395788
45.486899 45.574011 45.656933 45.735521 45.809598 45.879031 45.943662 46.003372
46.058021 46.107508 46.151716 46.190560 46.223949 46.251816 46.274096 46.290744
46.301721 46.307003 46.306578 46.300447 46.288623 46.271130 46.248009 46.219304
46.185084 46.145413 46.100387 46.050089 45.994639 45.934139 45.868729 45.798528
45.723698 45.644371 45.560726 45.472908 45.381109 45.285485 45.186240 45.083536
44.977589 44.868563 44.756681 44.642109 44.525074 44.405743 44.284341 44.161034
44.036047 43.909539 43.781733 43.652780 43.522898 43.392230 43.260986 43.129298
42.997368 42.865318 42.733337 42.601536 42.470092 42.339103 42.208733 42.079067
41.950257 41.822371 41.695548 41.569843 41.445380 41.322201 41.200415 41.080048
40.961196 40.843873 40.728159 40.614054 40.501625 40.390860 40.281811 40.174454
40.068827 39.964898 39.862688 39.762156 39.663312 39.566103 39.470528 39.376526
39.284084 39.193134 39.103651 39.015562 38.928830 38.843378 38.759159 38.676090
38.594118 38.513155 38.433139 38.353980 38.275610 38.197936 38.120884 38.044360
37.968285 37.892565 37.817117 37.741846 37.666667
38.044444 38.129573 38.214796 38.300207 38.385902 38.471969 38.558506 38.645597
38.733339 38.821811 38.911108 39.001301 39.092486 39.184725 39.278109 39.372694
39.468567 39.565772 39.664393 39.764463 39.866059 39.969204 40.073968 40.180361
40.288445 40.398218 40.509732 40.622973 40.737981 40.854729 40.973246 41.093490
41.215479 41.339155 41.464523 41.591510 41.720108 41.850229 41.981850 42.114866
42.249241 42.384854 42.521654 42.659504 42.798337 42.938002 43.078418 43.219417
43.360903 43.502694 43.644681 43.786668 43.928531 44.070062 44.211126 44.351503
44.491045 44.629525 44.766784 44.902587 45.036767 45.169084 45.299364 45.427365
45.552907 45.675748 45.795708 45.912546 46.026083 46.136083 46.242370 46.344718
46.442955 46.536867 46.626292 46.711030 46.790930 46.865809 46.935531 46.999933