# vtk DataFile Version 3.0
Steady-state temperature (Jacobi)
ASCII
DATASET STRUCTURED_POINTS
DIMENSIONS 181 181 1
ORIGIN 0.0 0.0 0.0
SPACING 0.05 0.05 1.0
POINT_DATA 32761
SCALARS Temperature float 1
LOOKUP_TABLE default
32.000000 32.000000 32.000000 32.000000 32.000000 32.000000 32.000000 32.000000
32.000000 32.000000 32.000000 32.000000 32.000000 32.000000 32.000000 32.000000
32.000000 32.000000 32.000000 32.000000 32.000000 32.000000 32.000000 32.000000
32.000000 32.000000 32.000000 32.000000 32.000000 32.000000 32.000000 32.000000
32.000000 32.000000 32.000000 32.000000 32.000000 32.000000 32.000000 32.000000
32.000000 32.000000 32.000000 32.000000 32.000000 32.000000 32.000000 32.000000
32.000000 32.000000 32.000000 32.000000 32.000000 32.000000 32.000000 32.000000
32.000000 32.000000 32.000000 32.000000 32.000000 32.000000 32.000000 32.000000
32.000000 32.000000 32.000000 32.000000 32.000000 32.000000 32.000000 32.000000
32.000000 32.000000 32.000000 32.000000 32.000000 32.000000 32.000000 32.000000
32.000000 32.000000 32.000000 32.000000 32.000000 32.000000 32.000000 32.000000
32.000000 32.000000 32.000000 32.000000 32.000000 32.000000 32.000000 32.000000
32.000000 32.000000 32.000000 32.000000 32.000000 32.000000 32.000000 32.000000
32.000000 32.000000 32.000000 32.000000 32.000000 32.000000 32.000000 32.000000
32.000000 32.000000 32.000000 32.000000 32.000000 32.000000 32.000000 32.000000
32.000000 32.000000 32.000000 32.000000 32.000000 32.000000 32.000000 32.000000
32.000000 32.000000 32.000000 32.000000 32.000000 32.000000 32.000000 32.000000
32.000000 32.000000 32.000000 32.000000 32.000000 32.000000 32.000000 32.000000
32.000000 32.000000 32.000000 32.000000 32.000000 32.000000 32.000000 32.000000
32.000000 32.000000 32.000000 32.000000 32.000000 32.000000 32.000000 32.000000
32.000000 32.000000 32.000000 32.000000 32.000000 32.000000 32.000000 32.000000
32.000000 32.000000 32.000000 32.000000 32.000000 32.000000 32.000000 32.000000
32.000000 32.000000 32.000000 32.000000 32.000000
32.377778 32.376932 32.376094 32.375275 32.374481 32.373722 32.373006 32.372342
32.371738 32.371203 32.370743 32.370368 32.370085 32.369902 32.369824 32.369861
32.370018 32.370303 32.370719 32.371276 32.371976 32.372828 32.373832 32.374997
32.376323 32.377819 32.379482 32.381320 32.383331 32.385521 32.387887 32.390435
32.393160 32.396068 32.399151 32.402415 32.405852 32.409466 32.413248 32.417201
32.421315 32.425591 32.430019 32.434599 32.439318 32.444177 32.449162 32.454272
32.459492 32.464821 32.470241 32.475751 32.481334 32.486986 32.492689 32.498440
32.504218 32.510021 32.515828 32.521634 32.527419 32.533178 32.538890 32.544550
32.550138 32.555646 32.561055 32.566359 32.571538 32.576586 32.581484 32.586224
32.590790 32.595175 32.599363 32.603346 32.607111 32.610651 32.613952 32.617010
32.619813 32.622355 32.624628 32.626627 32.628345 32.629778 32.630921 32.631772
32.632328 32.632587 32.632548 32.632211 32.631578 32.630649 32.629428 32.627917
32.626122 32.624045 32.621694 32.619073 32.616192 32.613056 32.609675 32.606057
32.602213 32.598151 32.593884 32.589420 32.584775 32.579955 32.574979 32.569852
32.564593 32.559210 32.553722 32.548135 32.542469 32.536731 32.530940 32.525104
32.519242 32.513359 32.507476 32.501599 32.495746 32.489922 32.484147 32.478423
32.472771 32.467192 32.461704 32.456310 32.451027 32.445855 32.440810 32.435893
32.431119 32.426486 32.422009 32.417685 32.413528 32.409533 32.405714 32.402066
32.398599 32.395308 32.392203 32.389277 32.386539 32.383982 32.381613 32.379424
32.377420 32.375594 32.373949 32.372477 32.371181 32.370051 32.369090 32.368287
32.367644 32.367150 32.366804 32.366597 32.366526 32.366581 32.366760 32.367052
32.367452 32.367952 32.368545 32.369222 32.369977 32.370800 32.371684 32.372619
32.373599 32.374613 32.375653 32.376711 32.377778
32.755556 32.753869 32.752200 32.750566 32.748984 32.747472 32.746047 32.744724
32.743523 32.742457 32.741546 32.740801 32.740243 32.739880 32.739735 32.739813
32.740137 32.740710 32.741554 32.742672 32.744085 32.745791 32.747813 32.750148
32.752814 32.755809 32.759150 32.762831 32.766868 32.771253 32.776002 32.781103
32.786571 32.792391 32.798577 32.805110 32.812004 32.819239 32.826823 32.834736
32.842985 32.851545 32.860422 32.869590 32.879052 32.888778 32.898772 32.909001
32.919465 32.930131 32.940997 32.952027 32.963218 32.974532 32.985964 32.997475
33.009058 33.020674 33.032313 33.043936 33.055533 33.067061 33.078511 33.089842
33.101042 33.112069 33.122912 33.133530 33.143911 33.154017 33.163834 33.173325
33.182477 33.191256 33.199650 33.207625 33.215171 33.222259 33.228876 33.234999
33.240617 33.245707 33.250263 33.254266 33.257709 33.260578 33.262870 33.264574
33.265687 33.266206 33.266128 33.265454 33.264185 33.262326 33.259879 33.256853
33.253255 33.249096 33.244384 33.239137 33.233362 33.227083 33.220308 33.213063
33.205360 33.197226 33.188675 33.179737 33.170427 33.160777 33.150802 33.140538
33.129999 33.119222 33.108221 33.097036 33.085680 33.074192 33.062586 33.050903
33.039152 33.027376 33.015585 33.003819 32.992087 32.980430 32.968853 32.957397
32.946066 32.934899 32.923899 32.913102 32.902510 32.892158 32.882045 32.872203
32.862631 32.853358 32.844381 32.835726 32.827390 32.819395 32.811735 32.804433
32.797479 32.790892 32.784662 32.778807 32.773312 32.768194 32.763438 32.759055
32.755031 32.751375 32.748070 32.745123 32.742516 32.740254 32.738318 32.736710
32.735410 32.734418 32.733715 32.733297 32.733144 32.733252 32.733599 32.734180
32.734972 32.735967 32.737146 32.738496 32.739998 32.741640 32.743400 32.745267
32.747219 32.749242 32.751317 32.753428 32.755556
33.133333 33.130818 33.128328 33.125892 33.123533 33.121280 33.119155 33.117189
33.115399 33.113819 33.112464 33.111367 33.110541 33.110019 33.109812 33.109953
33.110450 33.111335 33.112614 33.114317 33.116448 33.119037 33.122082 33.125615
33.129628 33.134153 33.139179 33.144734 33.150806 33.157420 33.164560 33.172250
33.180470 33.189240 33.198537 33.208381 33.218742 33.229639 33.241038 33.252953
33.265350 33.278238 33.291579 33.305381 33.319600 33.334242 33.349260 33.364657
33.380383 33.396437 33.412766 33.429367 33.446185 33.463213 33.480393 33.497717
33.515126 33.532607 33.550100 33.567592 33.585021 33.602370 33.619580 33.636632
33.653465 33.670060 33.686357 33.702337 33.717942 33.733149 33.747905 33.762189
33.775946 33.789159 33.801776 33.813779 33.825122 33.835788 33.845737 33.854951
33.863396 33.871058 33.877907 33.883931 33.889107 33.893426 33.896871 33.899436
33.901110 33.901890 33.901774 33.900760 33.898853 33.896055 33.892377 33.887824
33.882414 33.876156 33.869073 33.861177 33.852497 33.843047 33.832863 33.821960
33.810380 33.798141 33.785286 33.771837 33.757842 33.743321 33.728327 33.712882
33.697040 33.680823 33.664289 33.647457 33.630388 33.613102 33.595658 33.578076
33.560416 33.542695 33.524974 33.507268 33.489637 33.472093 33.454695 33.437454
33.420427 33.403620 33.387089 33.370839 33.354923 33.339340 33.324143 33.309328
33.294944 33.280984 33.267493 33.254463 33.241935 33.229897 33.218385 33.207387
33.196935 33.187013 33.177649 33.168826 33.160566 33.152851 33.145700 33.139090
33.133038 33.127520 33.122548 33.118095 33.114171 33.110748 33.107831 33.105390
33.103428 33.101915 33.100848 33.100197 33.099956 33.100095 33.100604 33.101453
33.102631 33.104104 33.105860 33.107868 33.110109 33.112554 33.115184 33.117967
33.120883 33.123903 33.127003 33.130155 33.133333
33.511111 33.507783 33.504491 33.501268 33.498152 33.495173 33.492370 33.489772
33.487418 33.485335 33.483563 33.482123 33.481059 33.480387 33.480151 33.480363
33.481068 33.482273 33.484022 33.486321 33.489209 33.492689 33.496800 33.501539
33.506944 33.513008 33.519766 33.527206 33.535363 33.544217 33.553802 33.564093
33.575120 33.586854 33.599322 33.612490 33.626381 33.640955 33.656232 33.672168
33.688779 33.706015 33.723889 33.742346 33.761394 33.780974 33.801090 33.821680
33.842742 33.864210 33.886079 33.908278 33.930801 33.953571 33.976579 33.999746
34.023058 34.046435 34.069861 34.093253 34.116592 34.139795 34.162840 34.185646
34.208187 34.230382 34.252206 34.273579 34.294475 34.314817 34.334576 34.353682
34.372105 34.389778 34.406675 34.422731 34.437922 34.452190 34.465513 34.477840
34.489150 34.499399 34.508572 34.516631 34.523563 34.529341 34.533955 34.537387
34.539630 34.540675 34.540519 34.539164 34.536610 34.532868 34.527943 34.521853
34.514609 34.506238 34.496753 34.486190 34.474567 34.461927 34.448290 34.433707
34.418200 34.401829 34.384616 34.366627 34.347887 34.328465 34.308388 34.287730
34.266517 34.244828 34.222688 34.200177 34.177322 34.154204 34.130847 34.107334
34.083687 34.059989 34.036260 34.012582 33.988973 33.965513 33.942216 33.919161
33.896359 33.873885 33.851748 33.830019 33.808702 33.787866 33.767510 33.747701
33.728432 33.709765 33.691692 33.674267 33.657480 33.641381 33.625953 33.611244
33.597233 33.583961 33.571404 33.559599 33.548519 33.538194 33.528595 33.519747
33.511618 33.504227 33.497541 33.491573 33.486288 33.481695 33.477755 33.474474
33.471811 33.469767 33.468300 33.467407 33.467045 33.467206 33.467847 33.468956
33.470489 33.472431 33.474739 33.477393 33.480350 33.483587 33.487063 33.490751
33.494612 33.498614 33.502721 33.506899 33.511111
33.888889 33.884772 33.880699 33.876714 33.872860 33.869182 33.865719 33.862520
33.859618 33.857065 33.854891 33.853146 33.851856 33.851075 33.850821 33.851149
33.852072 33.853645 33.855877 33.858819 33.862477 33.866902 33.872091 33.878094
33.884904 33.892568 33.901072 33.910462 33.920718 33.931881 33.943925 33.956890
33.970742 33.985516 34.001174 34.017746 34.035186 34.053521 34.072700 34.092744
34.113594 34.135268 34.157702 34.180907 34.204813 34.229428 34.254674 34.280554
34.306987 34.333969 34.361414 34.389315 34.417580 34.446197 34.475071 34.504185
34.533442 34.562821 34.592221 34.621617 34.650909 34.680069 34.708993 34.737653
34.765946 34.793839 34.821233 34.848093 34.874323 34.899887 34.924691 34.948702
34.971830 34.994042 35.015254 35.035433 35.054505 35.072438 35.089165 35.104658
35.118858 35.131741 35.143257 35.153387 35.162092 35.169355 35.175149 35.179463
35.182280 35.183594 35.183400 35.181697 35.178492 35.173790 35.167607 35.159955
35.150861 35.140341 35.128433 35.115159 35.100568 35.084683 35.067563 35.049237
35.029771 35.009197 34.987590 34.964983 34.941459 34.917053 34.891852 34.865892
34.839267 34.812011 34.784222 34.755935 34.727250 34.698199 34.668885 34.639338
34.609662 34.579883 34.550104 34.520350 34.490722 34.461241 34.432005 34.403033
34.374418 34.346175 34.318395 34.291086 34.264335 34.238146 34.212602 34.187700
34.163519 34.140051 34.117368 34.095459 34.074389 34.054141 34.034775 34.016271
33.998680 33.981978 33.966210 33.951347 33.937430 33.924423 33.912361 33.901206
33.890986 33.881658 33.873244 33.865701 33.859042 33.853222 33.848248 33.844072
33.840697 33.838073 33.836195 33.835014 33.834519 33.834659 33.835420 33.836749
33.838626 33.841000 33.843846 33.847113 33.850771 33.854770 33.859077 33.863641
33.868428 33.873388 33.878482 33.883663 33.888889
34.266667 34.261788 34.256964 34.252243 34.247683 34.243330 34.239243 34.235464
34.232054 34.229051 34.226517 34.224485 34.223018 34.222143 34.221923 34.222382
34.223580 34.225536 34.228310 34.231912 34.236404 34.241788 34.248123 34.255406
34.263694 34.272975 34.283304 34.294661 34.307099 34.320590 34.335182 34.350841
34.367611 34.385448 34.404392 34.424393 34.445485 34.467609 34.490795 34.514977
34.540177 34.566322 34.593430 34.621419 34.650302 34.679989 34.710486 34.741699
34.773626 34.806167 34.839316 34.872964 34.907100 34.941613 34.976483 35.011596
35.046929 35.082361 35.117866 35.153321 35.188695 35.223866 35.258797 35.293365
35.327533 35.361180 35.394263 35.426664 35.458342 35.489181 35.519139 35.548106
35.576040 35.602837 35.628457 35.652804 35.675839 35.697477 35.717681 35.736375
35.753527 35.769072 35.782984 35.795208 35.805723 35.814488 35.821488 35.826695
35.830099 35.831686 35.831453 35.829400 35.825530 35.819857 35.812391 35.803159
35.792176 35.779484 35.765104 35.749090 35.731467 35.712303 35.691628 35.669518
35.646010 35.621190 35.595096 35.567825 35.539416 35.509974 35.479541 35.448227
35.416074 35.383199 35.349642 35.315523 35.280884 35.245846 35.210448 35.174813
35.138977 35.103063 35.067103 35.031221 34.995443 34.959891 34.924586 34.889647
34.855092 34.821033 34.787482 34.754550 34.722240 34.690658 34.659803 34.629772
34.600559 34.572255 34.544848 34.518421 34.492957 34.468532 34.445122 34.422795
34.401523 34.381366 34.362290 34.344348 34.327500 34.311792 34.297179 34.283698
34.271303 34.260021 34.249802 34.240667 34.232561 34.225499 34.219422 34.214338
34.210186 34.206967 34.204619 34.203135 34.202453 34.202558 34.203387 34.204920
34.207094 34.209884 34.213225 34.217087 34.221406 34.226148 34.231249 34.236670
34.242350 34.248245 34.254296 34.260455 34.266667
34.644444 34.638839 34.633295 34.627876 34.622639 34.617652 34.612967 34.608654
34.604759 34.601356 34.598485 34.596219 34.594595 34.593685 34.593520 34.594172
34.595665 34.598072 34.601406 34.605742 34.611086 34.617510 34.625011 34.633659
34.643444 34.654432 34.666606 34.680027 34.694669 34.710590 34.727754 34.746215
34.765928 34.786942 34.809201 34.832751 34.857525 34.883563 34.910791 34.939240
34.968828 34.999579 35.031402 35.064315 35.098219 35.133122 35.168919 35.205612
35.243086 35.281336 35.320242 35.359792 35.399857 35.440421 35.481348 35.522616
35.564087 35.605730 35.647404 35.689074 35.730596 35.771931 35.812935 35.853564
35.893674 35.933219 35.972058 36.010142 36.047333 36.083581 36.118754 36.152803
36.185601 36.217100 36.247184 36.275804 36.302854 36.328290 36.352016 36.373992
36.394136 36.412412 36.428750 36.443122 36.455472 36.465778 36.474000 36.480123
36.484122 36.485990 36.485718 36.483307 36.478765 36.472098 36.463332 36.452481
36.439586 36.424668 36.407783 36.388960 36.368268 36.345743 36.321467 36.295481
36.267879 36.238707 36.208071 36.176019 36.142666 36.108064 36.072336 36.035534
35.997789 35.959153 35.919762 35.879665 35.839006 35.797829 35.756280 35.714403
35.672342 35.630137 35.587933 35.545765 35.503775 35.461994 35.420561 35.379500
35.338946 35.298917 35.259543 35.220835 35.182917 35.145793 35.109579 35.074274
35.039986 35.006706 34.974534 34.943455 34.913561 34.884827 34.857339 34.831065
34.806081 34.782350 34.759938 34.738802 34.718999 34.700480 34.683294 34.667386
34.652795 34.639462 34.627419 34.616601 34.607030 34.598640 34.591443 34.585370
34.580425 34.576537 34.573702 34.571847 34.570959 34.570965 34.571845 34.573524
34.575976 34.579127 34.582943 34.587350 34.592310 34.597748 34.603621 34.609856
34.616404 34.623196 34.630176 34.637279 34.644444
35.022222 35.015928 35.009706 35.003623 34.997756 34.992167 34.986934 34.982115
34.977792 34.974015 34.970867 34.968393 34.966677 34.965756 34.965715 34.966584
34.968448 34.971327 34.975305 34.980396 34.986682 34.994166 35.002928 35.012963
35.024348 35.037067 35.051194 35.066704 35.083666 35.102043 35.121901 35.143194
35.165979 35.190201 35.215912 35.243044 35.271644 35.301634 35.333052 35.365810
35.399940 35.435343 35.472042 35.509928 35.549018 35.589192 35.630459 35.672690
35.715884 35.759907 35.804748 35.850265 35.896440 35.943123 35.990290 36.037786
36.085577 36.133506 36.181532 36.229493 36.277345 36.324923 36.372178 36.418945
36.465171 36.510694 36.555456 36.599299 36.642163 36.683895 36.724436 36.763638
36.801443 36.837712 36.872389 36.905345 36.936527 36.965818 36.993169 37.018477
37.041700 37.062748 37.081584 37.098137 37.112377 37.124248 37.133729 37.140782
37.145395 37.147549 37.147238 37.144464 37.139230 37.131555 37.121453 37.108959
37.094097 37.076920 37.057459 37.035786 37.011937 36.986002 36.958022 36.928102
36.896290 36.862704 36.827396 36.790494 36.752057 36.712222 36.671047 36.628682
36.585185 36.540710 36.495317 36.449165 36.402311 36.354918 36.307040 36.258843
36.210375 36.161803 36.113172 36.064644 36.016259 35.968178 35.920433 35.873181
35.826448 35.780384 35.735007 35.690463 35.646761 35.604037 35.562295 35.521663
35.482134 35.443828 35.406732 35.370955 35.336474 35.303392 35.271676 35.241418
35.212580 35.185241 35.159357 35.134997 35.112108 35.090752 35.070869 35.052508
35.035605 35.020199 35.006221 34.993699 34.982560 34.972823 34.964409 34.957328
34.951501 34.946925 34.943519 34.941273 34.940102 34.939989 34.940848 34.942652
34.945317 34.948807 34.953037 34.957967 34.963510 34.969620 34.976213 34.983234
34.990604 34.998261 35.006129 35.014140 35.022222
35.400000 35.393062 35.386204 35.379508 35.373047 35.366910 35.361165 35.355901
35.351179 35.347094 35.343698 35.341087 35.339306 35.338452 35.338562 35.339732
35.341991 35.345433 35.350080 35.356024 35.363275 35.371925 35.381973 35.393508
35.406517 35.421088 35.437196 35.454922 35.474232 35.495202 35.517786 35.542053
35.567945 35.595526 35.624726 35.655600 35.688067 35.722174 35.757829 35.795070
35.833792 35.874026 35.915655 35.958702 36.003037 36.048674 36.095474 36.143440
36.192424 36.242420 36.293270 36.344959 36.397321 36.450332 36.503820 36.557752
36.611950 36.666373 36.720838 36.775299 36.829569 36.883596 36.937192 36.990300
37.042733 37.094429 37.145205 37.194995 37.243621 37.291016 37.337010 37.381534
37.424426 37.465621 37.504967 37.542400 37.577783 37.611055 37.642093 37.670843
37.697197 37.721109 37.742487 37.761293 37.777455 37.790943 37.801706 37.809722
37.814960 37.817409 37.817060 37.813912 37.807976 37.799261 37.787799 37.773611
37.756749 37.737241 37.715161 37.690546 37.663488 37.634032 37.602288 37.568308
37.532217 37.494074 37.454018 37.412112 37.368508 37.323272 37.276566 37.228459
37.179121 37.128620 37.077135 37.024731 36.971592 36.917781 36.863484 36.808761
36.753798 36.698650 36.643504 36.588406 36.533542 36.478951 36.424814 36.371163
36.318174 36.265869 36.214418 36.163835 36.114281 36.065761 36.018426 35.972274
35.927445 35.883928 35.841853 35.801198 35.762083 35.724478 35.688490 35.654081
35.621348 35.590242 35.560849 35.533113 35.507107 35.482769 35.460159 35.439209
35.419967 35.402359 35.386421 35.372074 35.359344 35.348145 35.338493 35.330298
35.323565 35.318203 35.314205 35.311476 35.310001 35.309684 35.310499 35.312350
35.315203 35.318960 35.323580 35.328965 35.335064 35.341785 35.349067 35.356820
35.364977 35.373450 35.382167 35.391043 35.400000
35.777778 35.770245 35.762803 35.755537 35.748543 35.741898 35.735704 35.730031
35.724982 35.720622 35.717055 35.714338 35.712577 35.711818 35.712169 35.713668
35.716420 35.720453 35.725874 35.732697 35.741028 35.750871 35.762327 35.775389
35.790155 35.806605 35.824833 35.844807 35.866614 35.890210 35.915676 35.942955
35.972119 36.003100 36.035962 36.070623 36.107138 36.145413 36.185494 36.227271
36.270784 36.315908 36.362674 36.410944 36.460738 36.511907 36.564460 36.618236
36.673234 36.729283 36.786371 36.844318 36.903100 36.962529 37.022573 37.083035
37.143875 37.204890 37.266030 37.327091 37.388013 37.448591 37.508759 37.568310
37.627174 37.685146 37.742152 37.797991 37.852586 37.905744 37.957386 38.007327
38.055490 38.101700 38.145883 38.187877 38.227612 38.264940 38.299798 38.332055
38.361654 38.388484 38.412497 38.433600 38.451755 38.466892 38.478983 38.487981
38.493868 38.496621 38.496233 38.492705 38.486042 38.476268 38.463400 38.447485
38.428552 38.406670 38.381877 38.354266 38.323884 38.290844 38.255201 38.217087
38.176565 38.133784 38.088811 38.041812 37.992858 37.942126 37.889693 37.835745
37.780358 37.723730 37.665936 37.607177 37.547529 37.487197 37.426251 37.364900
37.303208 37.241385 37.179488 37.117723 37.056143 36.994949 36.934184 36.874046
36.814567 36.755938 36.698182 36.641481 36.585849 36.531459 36.478312 36.426572
36.376231 36.327438 36.280178 36.234587 36.190638 36.148458 36.108007 36.069400
36.032589 35.997673 35.964596 35.933446 35.904156 35.876801 35.851308 35.827736
35.806007 35.786167 35.768130 35.751931 35.737477 35.724792 35.713777 35.704444
35.696692 35.690519 35.685821 35.682586 35.680708 35.680162 35.680843 35.682715
35.685671 35.689668 35.694599 35.700410 35.706995 35.714294 35.722201 35.730649
35.739536 35.748785 35.758298 35.767994 35.777778
36.155556 36.147484 36.139509 36.131735 36.124252 36.117168 36.110567 36.104559
36.099221 36.094668 36.090966 36.088231 36.086522 36.085955 36.086579 36.088510
36.091786 36.096523 36.102747 36.110572 36.120011 36.131178 36.144071 36.158801
36.175354 36.193834 36.214215 36.236596 36.260935 36.287326 36.315713 36.346181
36.378661 36.413229 36.449801 36.488445 36.529062 36.571710 36.616274 36.662804
36.711170 36.761409 36.813379 36.867106 36.922432 36.979374 37.037759 37.097593
37.158691 37.221047 37.284465 37.348926 37.414225 37.480333 37.547035 37.614290
37.681879 37.749749 37.817676 37.885597 37.953286 38.020673 38.087528 38.153775
38.219186 38.283680 38.347032 38.409157 38.469834 38.528979 38.586380 38.641949
38.695487 38.746909 38.796026 38.842759 38.886935 38.928479 38.967235 39.003138
39.036050 39.065914 39.092617 39.116108 39.136299 39.153151 39.166600 39.176619
39.183170 39.186239 39.185812 39.181891 39.174487 39.163614 39.149311 39.131604
39.110557 39.086209 39.058649 39.027926 38.994153 38.957389 38.917770 38.875362
38.830321 38.782721 38.732736 38.680445 38.626039 38.569599 38.511329 38.451314
38.389768 38.326775 38.262556 38.197197 38.130924 38.063817 37.996107 37.927870
37.859336 37.790575 37.721817 37.653123 37.584720 37.516661 37.449166 37.382278
37.316213 37.251001 37.186849 37.123778 37.061983 37.001475 36.942437 36.884868
36.828941 36.774640 36.722127 36.671376 36.622532 36.575560 36.530591 36.487578
36.446638 36.407714 36.370909 36.336155 36.303540 36.272989 36.244575 36.218213
36.193962 36.171731 36.151564 36.133362 36.117157 36.102844 36.090441 36.079838
36.071040 36.063933 36.058510 36.054655 36.052346 36.051467 36.051985 36.053781
36.056812 36.060959 36.066170 36.072325 36.079361 36.087163 36.095659 36.104734
36.114308 36.124271 36.134536 36.144995 36.155556
36.533333 36.524781 36.516338 36.508108 36.500207 36.492731 36.485800 36.479502
36.473960 36.469253 36.465508 36.462793 36.461237 36.460898 36.461903 36.464301
36.468219 36.473692 36.480847 36.489705 36.500391 36.512913 36.527393 36.543823
36.562322 36.582867 36.605570 36.630394 36.657446 36.686672 36.718170 36.751873
36.787868 36.826073 36.866566 36.909248 36.954187 37.001268 37.050548 37.101896
37.155357 37.210783 37.268209 37.327470 37.388590 37.451389 37.515875 37.581858
37.649332 37.718091 37.788120 37.859201 37.931303 38.004200 38.077849 38.152014
38.226641 38.301488 38.376490 38.451398 38.526139 38.600463 38.674287 38.747360
38.819594 38.890739 38.960703 39.029241 39.096256 39.161513 39.224913 39.286230
39.345369 39.402114 39.456374 39.507950 39.556755 39.602607 39.645428 39.685058
39.721425 39.754392 39.783898 39.809833 39.832147 39.850754 39.865619 39.876685
39.883929 39.887322 39.886857 39.882534 39.874360 39.862363 39.846567 39.827027
39.803780 39.776911 39.746469 39.712565 39.675260 39.634691 39.590929 39.544134
39.494386 39.441865 39.386659 39.328966 39.268880 39.206614 39.142265 39.076060
39.008097 38.938612 38.867703 38.795615 38.722440 38.648431 38.573674 38.498423
38.422760 38.346937 38.271028 38.195284 38.119768 38.044727 37.970214 37.896467
37.823529 37.751631 37.680802 37.611262 37.543030 37.476312 37.411115 37.347633
37.285858 37.225973 37.167955 37.111972 37.057991 37.006163 36.956443 36.908966
36.863675 36.820690 36.779944 36.741540 36.705399 36.671609 36.640083 36.610892
36.583939 36.559282 36.536814 36.516578 36.498462 36.482491 36.468549 36.456648
36.446664 36.438597 36.432319 36.427815 36.424956 36.423714 36.423959 36.425648
36.428652 36.432917 36.438313 36.444777 36.452180 36.460447 36.469452 36.479111
36.489302 36.499932 36.510883 36.522055 36.533333
36.911111 36.902143 36.893292 36.884679 36.876415 36.868627 36.861416 36.854914
36.849213 36.844449 36.840703 36.838113 36.836748 36.836749 36.838173 36.841161
36.845756 36.852099 36.860219 36.870255 36.882222 36.896256 36.912356 36.930654
36.951134 36.973921 36.998985 37.026443 37.056249 37.088511 37.123167 37.160316
37.199878 37.241943 37.286414 37.333369 37.382693 37.434454 37.488518 37.544941
37.603572 37.664454 37.727418 37.792493 37.859495 37.928439 37.999124 38.071551
38.145505 38.220973 38.297724 38.375733 38.454758 38.534757 38.615478 38.696869
38.778666 38.860806 38.943018 39.025228 39.107162 39.188734 39.269669 39.349874
39.429073 39.507167 39.583885 39.659123 39.732616 39.804257 39.873792 39.941114
40.005981 40.068289 40.127811 40.184448 40.237990 40.288346 40.335329 40.378854
40.418758 40.454969 40.487349 40.515839 40.540328 40.560771 40.577089 40.589249
40.597204 40.600938 40.600434 40.595693 40.586731 40.573563 40.556236 40.534784
40.509284 40.479783 40.446390 40.409164 40.368244 40.323701 40.275700 40.224323
40.169759 40.112099 40.051553 39.988219 39.922325 39.853976 39.783414 39.710745
39.636226 39.559963 39.482222 39.403106 39.322889 39.241670 39.159725 39.077148
38.994217 38.911016 38.827822 38.744710 38.661951 38.579612 38.497955 38.417036
38.337108 38.258213 38.180596 38.104284 38.029510 37.956287 37.884834 37.815150
37.747440 37.681690 37.618087 37.556604 37.497411 37.440469 37.385930 37.333741
37.284040 37.236758 37.192017 37.149737 37.110021 37.072780 37.038098 37.005876
36.976182 36.948908 36.924104 36.901654 36.881593 36.863797 36.848285 36.834928
36.823729 36.814554 36.807392 36.802104 36.798665 36.796935 36.796874 36.798341
36.801284 36.805561 36.811107 36.817783 36.825511 36.834154 36.843625 36.853789
36.864548 36.875773 36.887356 36.899174 36.911111
37.288889 37.279573 37.270387 37.261453 37.252907 37.244862 37.237460 37.230806
37.225044 37.220269 37.216629 37.214206 37.213151 37.213533 37.215503 37.219119
37.224530 37.231779 37.241014 37.252264 37.265674 37.281255 37.299150 37.319352
37.342000 37.367070 37.394693 37.424828 37.457598 37.492943 37.530979 37.571627
37.614991 37.660975 37.709671 37.760963 37.814932 37.871443 37.930564 37.992141
38.056227 38.122649 38.191447 38.262429 38.335620 38.410811 38.488010 38.566993
38.647751 38.730045 38.813851 38.898915 38.985199 39.072434 39.160569 39.249326
39.338637 39.428216 39.517983 39.607645 39.697113 39.786088 39.874471 39.961963
40.048457 40.133656 40.217447 40.299538 40.379814 40.457990 40.533950 40.607422
40.678289 40.746295 40.811329 40.873152 40.931658 40.986631 41.037973 41.085494
41.129105 41.168644 41.204036 41.235147 41.261917 41.284244 41.302085 41.315369
41.324071 41.328156 41.327614 41.322445 41.312659 41.298289 41.279363 41.255949
41.228091 41.195891 41.159409 41.118778 41.074073 41.025457 40.973018 40.916946
40.857340 40.794415 40.728279 40.659168 40.587196 40.512619 40.435553 40.356271
40.274891 40.191696 40.106803 40.020504 39.932915 39.844331 39.754861 39.664805
39.574263 39.483535 39.392711 39.302086 39.211740 39.121963 39.032821 38.944595
38.857339 38.771323 38.686585 38.603384 38.521743 38.441905 38.363879 38.287894
38.213942 38.142235 38.072750 38.005682 37.940993 37.878860 37.819230 37.762260
37.707886 37.656246 37.607261 37.561050 37.517523 37.476780 37.438718 37.403421
37.370774 37.340842 37.313503 37.288803 37.266610 37.246955 37.229699 37.214853
37.202276 37.191961 37.183762 37.177658 37.173499 37.171247 37.170752 37.171962
37.174725 37.178977 37.184564 37.191411 37.199366 37.208341 37.218187 37.228805
37.240051 37.251815 37.263957 37.276360 37.288889
37.666667 37.657078 37.647625 37.638452 37.629686 37.621476 37.613940 37.607233
37.601462 37.596786 37.593299 37.591163 37.590461 37.591354 37.593912 37.598298
37.604564 37.612874 37.623263 37.635893 37.650784 37.668092 37.687820 37.710120
37.734977 37.762534 37.792760 37.825791 37.861573 37.900234 37.941703 37.986096
38.033320 38.083482 38.136467 38.192370 38.251056 38.312604 38.376862 38.443891
38.513519 38.585795 38.660523 38.737736 38.817221 38.898994 38.982822 39.068705
39.156392 39.245865 39.336859 39.429339 39.523023 39.617861 39.713560 39.810052
39.907033 40.004422 40.101906 40.199392 40.296560 40.393304 40.489304 40.584444
40.678403 40.771058 40.862092 40.951377 41.038602 41.123637 41.206182 41.286108
41.363129 41.437118 41.507807 41.575074 41.638675 41.698496 41.754315 41.806031
41.853451 41.896485 41.934972 41.968837 41.997952 42.022259 42.041666 42.056133
42.065603 42.070058 42.069478 42.063862 42.053230 42.037601 42.017032 41.991560
41.961281 41.926249 41.886595 41.842392 41.793801 41.740912 41.683917 41.622920
41.558141 41.489693 41.417823 41.342652 41.264448 41.183338 41.099608 41.013389
40.924981 40.834514 40.742301 40.648468 40.553336 40.457026 40.359863 40.261960
40.163642 40.065015 39.966400 39.867890 39.769802 39.672216 39.575441 39.479543
39.384818 39.291318 39.199328 39.108883 39.020252 38.933454 38.848743 38.766120
38.685822 38.607833 38.532371 38.459406 38.389134 38.321510 38.256710 38.194673
38.135557 38.079284 38.025992 37.975590 37.928195 37.883704 37.842212 37.803606
37.767961 37.735153 37.705237 37.678079 37.653718 37.632009 37.612972 37.596458
37.582468 37.570846 37.561577 37.554501 37.549587 37.546670 37.545705 37.546526
37.549071 37.553175 37.558762 37.565669 37.573806 37.583011 37.593183 37.604164
37.615841 37.628061 37.640701 37.653614 37.666667
38.044444 38.034659 38.025023 38.015679 38.006785 37.998471 37.990903 37.984200
37.978531 37.974005 37.970793 37.968993 37.968776 37.970226 37.973517 37.978714
37.985993 37.995404 38.007117 38.021168 38.037723 38.056799 38.078558 38.102998
38.130275 38.160365 38.193420 38.229394 38.268429 38.310460 38.355616 38.403813
38.455167 38.509572 38.567132 38.627717 38.691419 38.758085 38.827791 38.900364
38.975861 39.054088 39.135087 39.218640 39.304772 39.393245 39.484066 39.576978
39.671967 39.768759 39.867323 39.967367 40.068842 40.171441 40.275097 40.379491
40.484540 40.589913 40.695513 40.801001 40.906265 41.010963 41.114972 41.217945
41.319753 41.420049 41.518698 41.615359 41.709891 41.801964 41.891435 41.977987
42.061479 42.141613 42.218250 42.291113 42.360074 42.424878 42.485408 42.541439