# vtk DataFile Version 3.0
Steady-state temperature (Jacobi)
ASCII
DATASET STRUCTURED_POINTS
DIMENSIONS 181 181 1
ORIGIN 0.0 0.0 0.0
SPACING 0.05 0.05 1.0
POINT_DATA 32761
SCALARS Temperature float 1
LOOKUP_TABLE default
32.000000 32.000000 32.000000 32.000000 32.000000 32.000000 32.000000 32.000000
32.000000 32.000000 32.000000 32.000000 32.000000 32.000000 32.000000 32.000000
32.000000 32.000000 32.000000 32.000000 32.000000 32.000000 32.000000 32.000000
32.000000 32.000000 32.000000 32.000000 32.000000 32.000000 32.000000 32.000000
32.000000 32.000000 32.000000 32.000000 32.000000 32.000000 32.000000 32.000000
32.000000 32.000000 32.000000 32.000000 32.000000 32.000000 32.000000 32.000000
32.000000 32.000000 32.000000 32.000000 32.000000 32.000000 32.000000 32.000000
32.000000 32.000000 32.000000 32.000000 32.000000 32.000000 32.000000 32.000000
32.000000 32.000000 32.000000 32.000000 32.000000 32.000000 32.000000 32.000000
32.000000 32.000000 32.000000 32.000000 32.000000 32.000000 32.000000 32.000000
32.000000 32.000000 32.000000 32.000000 32.000000 32.000000 32.000000 32.000000
32.000000 32.000000 32.000000 32.000000 32.000000 32.000000 32.000000 32.000000
32.000000 32.000000 32.000000 32.000000 32.000000 32.000000 32.000000 32.000000
32.000000 32.000000 32.000000 32.000000 32.000000 32.000000 32.000000 32.000000
32.000000 32.000000 32.000000 32.000000 32.000000 32.000000 32.000000 32.000000
32.000000 32.000000 32.000000 32.000000 32.000000 32.000000 32.000000 32.000000
32.000000 32.000000 32.000000 32.000000 32.000000 32.000000 32.000000 32.000000
32.000000 32.000000 32.000000 32.000000 32.000000 32.000000 32.000000 32.000000
32.000000 32.000000 32.000000 32.000000 32.000000 32.000000 32.000000 32.000000
32.000000 32.000000 32.000000 32.000000 32.000000 32.000000 32.000000 32.000000
32.000000 32.000000 32.000000 32.000000 32.000000 32.000000 32.000000 32.000000
32.000000 32.000000 32.000000 32.000000 32.000000 32.000000 32.000000 32.000000
32.000000 32.000000 32.000000 32.000000 32.000000
32.377778 32.380247 32.382723 32.385213 32.387723 32.390263 32.392836 32.395452
32.398116 32.400835 32.403614 32.406462 32.409383 32.412385 32.415470 32.418647
32.421920 32.425294 32.428773 32.432363 32.436066 32.439889 32.443831 32.447900
32.452095 32.456421 32.460877 32.465469 32.470194 32.475056 32.480051 32.485185
32.490452 32.495855 32.501389 32.507056 32.512850 32.518771 32.524812 32.530974
32.537247 32.543631 32.550118 32.556704 32.563379 32.570142 32.576980 32.583890
32.590859 32.597884 32.604950 32.612053 32.619179 32.626321 32.633465 32.640604
32.647724 32.654815 32.661864 32.668861 32.675791 32.682646 32.689409 32.696071
32.702617 32.709037 32.715316 32.721445 32.727408 32.733195 32.738793 32.744192
32.749378 32.754343 32.759073 32.763561 32.767793 32.771764 32.775462 32.778880
32.782009 32.784844 32.787376 32.789600 32.791511 32.793105 32.794377 32.795325
32.795946 32.796239 32.796202 32.795837 32.795143 32.794123 32.792779 32.791113
32.789130 32.786833 32.784230 32.781324 32.778124 32.774635 32.770867 32.766827
32.762525 32.757969 32.753171 32.748139 32.742886 32.737422 32.731759 32.725907
32.719882 32.713691 32.707352 32.700872 32.694267 32.687548 32.680730 32.673821
32.666839 32.659791 32.652694 32.645555 32.638391 32.631209 32.624024 32.616844
32.609683 32.602547 32.595450 32.588398 32.581404 32.574473 32.567617 32.560839
32.554153 32.547559 32.541069 32.534684 32.528415 32.522262 32.516234 32.510330
32.504559 32.498918 32.493416 32.488050 32.482825 32.477739 32.472796 32.467993
32.463333 32.458812 32.454432 32.450189 32.446084 32.442111 32.438270 32.434557
32.430970 32.427503 32.424154 32.420917 32.417789 32.414764 32.411837 32.409002
32.406256 32.403589 32.400999 32.398476 32.396017 32.393613 32.391259 32.388947
32.386670 32.384422 32.382195 32.379983 32.377778
32.755556 32.760498 32.765455 32.770440 32.775467 32.780550 32.785703 32.790939
32.796273 32.801715 32.807281 32.812981 32.818830 32.824837 32.831016 32.837374
32.843927 32.850680 32.857647 32.864831 32.872247 32.879896 32.887792 32.895934
32.904335 32.912992 32.921916 32.931105 32.940566 32.950296 32.960301 32.970574
32.981122 32.991935 33.003018 33.014358 33.025960 33.037810 33.049908 33.062239
33.074802 33.087580 33.100570 33.113751 33.127120 33.140655 33.154349 33.168179
33.182137 33.196196 33.210349 33.224566 33.238837 33.253133 33.267441 33.281731
33.295990 33.310185 33.324302 33.338309 33.352189 33.365910 33.379456 33.392793
33.405904 33.418757 33.431334 33.443603 33.455546 33.467132 33.478345 33.489153
33.499541 33.509481 33.518956 33.527940 33.536419 33.544369 33.551776 33.558620
33.564888 33.570563 33.575635 33.580089 33.583917 33.587108 33.589656 33.591554
33.592798 33.593384 33.593311 33.592580 33.591191 33.589148 33.586455 33.583120
33.579148 33.574550 33.569335 33.563518 33.557108 33.550123 33.542576 33.534487
33.525870 33.516748 33.507137 33.497063 33.486542 33.475602 33.464260 33.452546
33.440477 33.428084 33.415386 33.402414 33.389186 33.375735 33.362078 33.348249
33.334264 33.320156 33.305942 33.291653 33.277304 33.262929 33.248540 33.234168
33.219825 33.205542 33.191329 33.177215 33.163208 33.149336 33.135605 33.122041
33.108649 33.095453 33.082455 33.069678 33.057123 33.044809 33.032736 33.020922
33.009363 32.998077 32.987057 32.976318 32.965855 32.955677 32.945778 32.936166
32.926834 32.917787 32.909016 32.900525 32.892303 32.884352 32.876662 32.869231
32.862047 32.855109 32.848402 32.841924 32.835660 32.829605 32.823744 32.818071
32.812570 32.807233 32.802046 32.796997 32.792072 32.787260 32.782546 32.777917
32.773359 32.768858 32.764400 32.759971 32.755556
33.133333 33.140760 33.148207 33.155698 33.163250 33.170888 33.178630 33.186498
33.194510 33.202688 33.211049 33.219615 33.228400 33.237427 33.246708 33.256264
33.266105 33.276254 33.286717 33.297515 33.308652 33.320148 33.332005 33.344242
33.356858 33.369869 33.383271 33.397081 33.411290 33.425912 33.440938 33.456378
33.472219 33.488470 33.505114 33.522159 33.539584 33.557393 33.575563 33.594097
33.612966 33.632171 33.651681 33.671494 33.691575 33.711918 33.732488 33.753276
33.774242 33.795376 33.816635 33.838005 33.859444 33.880934 33.902429 33.923911
33.945332 33.966671 33.987881 34.008937 34.029792 34.050420 34.070773 34.090824
34.110524 34.129847 34.148746 34.167191 34.185138 34.202559 34.219408 34.235659
34.251270 34.266215 34.280454 34.293963 34.306705 34.318659 34.329791 34.340082
34.349502 34.358036 34.365659 34.372356 34.378110 34.382909 34.386738 34.389592
34.391462 34.392344 34.392235 34.391135 34.389048 34.385977 34.381930 34.376914
34.370945 34.364032 34.356195 34.347447 34.337814 34.327311 34.315969 34.303807
34.290857 34.277143 34.262700 34.247553 34.231743 34.215295 34.198251 34.180639
34.162503 34.143872 34.124791 34.105289 34.085414 34.065192 34.044673 34.023883
34.002872 33.981663 33.960307 33.938827 33.917272 33.895662 33.874045 33.852441
33.830896 33.809426 33.788076 33.766861 33.745821 33.724969 33.704345 33.683957
33.663842 33.644007 33.624486 33.605281 33.586425 33.567917 33.549785 33.532028
33.514669 33.497705 33.481156 33.465016 33.449302 33.434004 33.419139 33.404693
33.390678 33.377080 33.363908 33.351146 33.338799 33.326850 33.315300 33.304132
33.293343 33.282915 33.272843 33.263106 33.253698 33.244597 33.235795 33.227268
33.219006 33.210985 33.203192 33.195604 33.188206 33.180974 33.173891 33.166935
33.160087 33.153323 33.146624 33.139968 33.133333
33.511111 33.521036 33.530990 33.540999 33.551094 33.561300 33.571648 33.582161
33.592870 33.603797 33.614973 33.626417 33.638160 33.650219 33.662625 33.675391
33.688547 33.702103 33.716089 33.730512 33.745400 33.760756 33.776606 33.792951
33.809815 33.827194 33.845110 33.863556 33.882550 33.902082 33.922167 33.942791
33.963967 33.985675 34.007925 34.030694 34.053988 34.077778 34.102070 34.126828
34.152055 34.177711 34.203795 34.230264 34.257112 34.284292 34.311794 34.339568
34.367601 34.395839 34.424265 34.452821 34.481487 34.510204 34.538947 34.567655
34.596300 34.624819 34.653182 34.681325 34.709214 34.736786 34.764005 34.790806
34.817154 34.842983 34.868259 34.892917 34.916921 34.940210 34.962747 34.984473
35.005355 35.025335 35.044382 35.062443 35.079489 35.095471 35.110363 35.124123
35.136726 35.148136 35.158334 35.167290 35.174987 35.181404 35.186528 35.190344
35.192846 35.194026 35.193880 35.192411 35.189619 35.185512 35.180099 35.173393
35.165408 35.156165 35.145681 35.133986 35.121099 35.107058 35.091886 35.075625
35.058303 35.039968 35.020649 35.000400 34.979253 34.957264 34.934467 34.910923
34.886667 34.861762 34.836243 34.810175 34.783594 34.756565 34.729124 34.701337
34.673238 34.644894 34.616335 34.587629 34.558805 34.529926 34.501021 34.472152
34.443344 34.414656 34.386109 34.357762 34.329631 34.301771 34.274196 34.246957
34.220065 34.193566 34.167467 34.141811 34.116602 34.091877 34.067638 34.043917
34.020711 33.998050 33.975927 33.954368 33.933361 33.912928 33.893055 33.873759
33.855023 33.836861 33.819253 33.802206 33.785700 33.769740 33.754300 33.739381
33.724959 33.711029 33.697564 33.684557 33.671980 33.659823 33.648054 33.636663
33.625617 33.614900 33.604482 33.594344 33.584453 33.574790 33.565321 33.556025
33.546870 33.537830 33.528876 33.519979 33.511111
33.888889 33.901332 33.913811 33.926361 33.939016 33.951813 33.964784 33.977966
33.991389 34.005091 34.019098 34.033449 34.048166 34.063288 34.078834 34.094842
34.111327 34.128327 34.145852 34.163939 34.182593 34.201849 34.221710 34.242206
34.263336 34.285129 34.307578 34.330708 34.354508 34.379001 34.404169 34.430031
34.456566 34.483788 34.511670 34.540223 34.569413 34.599249 34.629690 34.660740
34.692355 34.724533 34.757224 34.790421 34.824071 34.858162 34.892634 34.927472
34.962612 34.998032 35.033666 35.069488 35.105425 35.141450 35.177486 35.213502
35.249417 35.285198 35.320762 35.356072 35.391045 35.425639 35.459773 35.493403
35.526447 35.558860 35.590561 35.621505 35.651613 35.680839 35.709109 35.736376
35.762570 35.787648 35.811541 35.834211 35.855595 35.875656 35.894339 35.911611
35.927423 35.941746 35.954541 35.965784 35.975441 35.983497 35.989927 35.994718
35.997858 35.999339 35.999158 35.997313 35.993811 35.988657 35.981866 35.973450
35.963432 35.951831 35.938678 35.923999 35.907833 35.890209 35.871175 35.850766
35.829037 35.806025 35.781792 35.756378 35.729852 35.702256 35.673663 35.644117
35.613695 35.582441 35.550437 35.517726 35.484391 35.450476 35.416065 35.381201
35.345966 35.310404 35.274596 35.238581 35.202442 35.166213 35.129975 35.093760
35.057645 35.021658 34.985873 34.950315 34.915054 34.880109 34.845547 34.811383
34.777677 34.744442 34.711733 34.679556 34.647963 34.616955 34.586579 34.556830
34.527751 34.499333 34.471611 34.444574 34.418251 34.392627 34.367726 34.343528
34.320052 34.297276 34.275213 34.253836 34.233154 34.213138 34.193791 34.175083
34.157011 34.139541 34.122668 34.106356 34.090595 34.075348 34.060600 34.046313
34.032469 34.019029 34.005970 33.993255 33.980857 33.968737 33.956867 33.945208
33.933730 33.922393 33.911166 33.900009 33.888889
34.266667 34.281653 34.296682 34.311796 34.327038 34.342448 34.358071 34.373944
34.390112 34.406609 34.423481 34.440758 34.458485 34.476689 34.495416 34.514685
34.534543 34.555005 34.576116 34.597885 34.620355 34.643532 34.667455 34.692124
34.717577 34.743806 34.770847 34.798687 34.827355 34.856835 34.887152 34.918281
34.950245 34.983012 35.016599 35.050969 35.086134 35.122049 35.158722 35.196102
35.234190 35.272930 35.312315 35.352285 35.392828 35.433876 35.475412 35.517363
35.559705 35.602360 35.645301 35.688442 35.731751 35.775140 35.818571 35.861951
35.905240 35.948341 35.991208 36.033745 36.075903 36.117582 36.158731 36.199250
36.239088 36.278144 36.316365 36.353653 36.389955 36.425177 36.459264 36.492127
36.523713 36.553938 36.582753 36.610078 36.635866 36.660048 36.682581 36.703401
36.722472 36.739739 36.755171 36.768725 36.780375 36.790087 36.797843 36.803620
36.807408 36.809195 36.808977 36.806755 36.802532 36.796320 36.788130 36.777985
36.765904 36.751920 36.736058 36.718364 36.698868 36.677625 36.654673 36.630074
36.603871 36.576135 36.546914 36.516285 36.484300 36.451044 36.416568 36.380963
36.344283 36.306624 36.268038 36.228625 36.188438 36.147577 36.106096 36.064094
36.021623 35.978782 35.935622 35.892241 35.848683 35.805047 35.761374 35.717757
35.674235 35.630896 35.587774 35.544955 35.502466 35.460389 35.418744 35.377609
35.336999 35.296984 35.257576 35.218839 35.180777 35.143449 35.106854 35.071043
35.036012 35.001804 34.968409 34.935865 34.904156 34.873313 34.843317 34.814192
34.785913 34.758499 34.731921 34.706192 34.681278 34.657186 34.633881 34.611362
34.589591 34.568563 34.548236 34.528601 34.509613 34.491258 34.473491 34.456291
34.439612 34.423429 34.407697 34.392386 34.377449 34.362853 34.348553 34.334512
34.320683 34.307028 34.293502 34.280063 34.266667
34.644444 34.662003 34.679611 34.697320 34.715176 34.733233 34.751534 34.770133
34.789071 34.808402 34.828163 34.848408 34.869170 34.890501 34.912431 34.935011
34.958264 34.982242 35.006960 35.032469 35.058779 35.085937 35.113948 35.142855
35.172656 35.203392 35.235052 35.267674 35.301242 35.335786 35.371284 35.407763
35.445190 35.483589 35.522919 35.563197 35.604377 35.646468 35.689416 35.733226
35.777834 35.823238 35.869370 35.916219 35.963710 36.011825 36.060483 36.109660
36.159266 36.209272 36.259583 36.310163 36.360910 36.411784 36.462678 36.513546
36.564278 36.614822 36.665066 36.714952 36.764367 36.813252 36.861489 36.909017
36.955721 37.001536 37.046348 37.090093 37.132659 37.173982 37.213954 37.252512
37.289554 37.325020 37.358813 37.390878 37.421125 37.449503 37.475932 37.500367
37.522737 37.543003 37.561106 37.577014 37.590681 37.602081 37.611180 37.617962
37.622407 37.624506 37.624252 37.621646 37.616693 37.609404 37.599799 37.587894
37.573724 37.557314 37.538710 37.517946 37.495081 37.470153 37.443234 37.414369
37.383639 37.351095 37.316827 37.280891 37.243384 37.204366 37.163941 37.122171
37.079165 37.034987 36.989750 36.943518 36.896407 36.848481 36.799856 36.750595
36.700814 36.650574 36.599990 36.549118 36.498073 36.446907 36.395730 36.344590
36.293594 36.242784 36.192263 36.142065 36.092289 36.042963 35.994180 35.945962
35.898394 35.851493 35.805336 35.759934 35.715357 35.671608 35.628752 35.586783
35.545760 35.505671 35.466566 35.428428 35.391298 35.355155 35.320032 35.285902
35.252790 35.220665 35.189546 35.159394 35.130223 35.101991 35.074702 35.048313
35.022820 34.998177 34.974375 34.951363 34.929127 34.907615 34.886807 34.866648
34.847112 34.828146 34.809717 34.791771 34.774273 34.757165 34.740411 34.723953
34.707749 34.691745 34.675894 34.660144 34.644444
35.022222 35.042387 35.062609 35.082944 35.103453 35.124186 35.145206 35.166561
35.188313 35.210506 35.233203 35.256443 35.280289 35.304775 35.329962 35.355880
35.382587 35.410107 35.438497 35.467774 35.497992 35.529160 35.561331 35.594505
35.628733 35.664006 35.700369 35.737808 35.776362 35.816008 35.856780 35.898646
35.941636 35.985708 36.030885 36.077117 36.124420 36.172736 36.222073 36.272365
36.323611 36.375738 36.428739 36.482528 36.537094 36.592342 36.648253 36.704725
36.761729 36.819160 36.876979 36.935073 36.993399 37.051837 37.110337 37.168774
37.227093 37.285164 37.342926 37.400248 37.457063 37.513238 37.568704 37.623327
37.677034 37.729693 37.781230 37.831514 37.880472 37.927976 37.973954 38.018284
38.060895 38.101674 38.140551 38.177421 38.212220 38.244854 38.275263 38.303363
38.329103 38.352411 38.373243 38.391540 38.407268 38.420380 38.430853 38.438655
38.443772 38.446188 38.445898 38.442902 38.437205 38.428824 38.417773 38.404084
38.387781 38.368911 38.347507 38.323631 38.297324 38.268661 38.237691 38.204502
38.169151 38.131733 38.092314 38.050999 38.007856 37.963001 37.916506 37.868490
37.819030 37.768251 37.716229 37.663094 37.608921 37.553844 37.497935 37.441329
37.384096 37.326371 37.268219 37.209774 37.151098 37.092320 37.033498 36.974756
36.916147 36.857790 36.799729 36.742081 36.684882 36.628241 36.572187 36.516822
36.462169 36.408320 36.355291 36.303168 36.251957 36.201736 36.152504 36.104329
36.057205 36.011191 35.966271 35.922498 35.879849 35.838367 35.798024 35.758853
35.720821 35.683952 35.648208 35.613605 35.580098 35.547696 35.516351 35.486064
35.456782 35.428497 35.401155 35.374742 35.349199 35.324505 35.300601 35.277458
35.255015 35.233239 35.212067 35.191461 35.171357 35.151712 35.132462 35.113560
35.094944 35.076561 35.058351 35.040258 35.022222
35.400000 35.422809 35.445683 35.468687 35.491882 35.515337 35.539109 35.563267
35.587865 35.612972 35.638635 35.664927 35.691888 35.719589 35.748064 35.777383
35.807575 35.838707 35.870800 35.903918 35.938076 35.973334 36.009699 36.047226
36.085915 36.125817 36.166920 36.209273 36.252853 36.297703 36.343792 36.391156
36.439754 36.489615 36.540688 36.592995 36.646476 36.701143 36.756927 36.813834
36.871782 36.930769 36.990705 37.051579 37.113291 37.175821 37.239060 37.302980
37.367464 37.432475 37.497887 37.563656 37.629649 37.695813 37.762011 37.828181
37.894181 37.959943 38.025321 38.090242 38.154556 38.218184 38.280978 38.342854
38.403664 38.463322 38.521680 38.578654 38.634097 38.687926 38.740000 38.790237
38.838503 38.884718 38.928758 38.970548 39.009972 39.046963 39.081416 39.113270
39.142436 39.168859 39.192465 39.213209 39.231032 39.245900 39.257769 39.266617
39.272417 39.275159 39.274832 39.271439 39.264986 39.255488 39.242968 39.227452
39.208982 39.187593 39.163345 39.136282 39.106479 39.073992 39.038909 39.001293
38.961248 38.918843 38.874193 38.827374 38.778511 38.727684 38.675027 38.620624
38.564615 38.507086 38.448182 38.387988 38.326656 38.264268 38.200976 38.136863
38.072080 38.006705 37.940890 37.874707 37.808305 37.741752 37.675192 37.608687
37.542375 37.476311 37.410628 37.345372 37.280670 37.216560 37.153160 37.090500
37.028689 36.967750 36.907783 36.848800 36.790893 36.734066 36.678401 36.623893
36.570615 36.518554 36.467772 36.418248 36.370035 36.323105 36.277500 36.233185
36.190193 36.148484 36.108078 36.068931 36.031055 35.994399 35.958966 35.924700
35.891598 35.859597 35.828687 35.798802 35.769923 35.741983 35.714954 35.688767
35.663389 35.638748 35.614804 35.591485 35.568746 35.546515 35.524740 35.503350
35.482288 35.461486 35.440882 35.420408 35.400000
35.777778 35.803275 35.828844 35.854557 35.880487 35.906702 35.933277 35.960275
35.987774 36.015830 36.044521 36.073898 36.104038 36.134987 36.166820 36.199575
36.233327 36.268104 36.303981 36.340976 36.379160 36.418544 36.459195 36.501114
36.544363 36.588934 36.634883 36.682192 36.730911 36.781012 36.832537 36.885448
36.939780 36.995483 37.052585 37.111026 37.170823 37.231905 37.294282 37.357871
37.422673 37.488593 37.555624 37.623659 37.692682 37.762576 37.833314 37.904770
37.976908 38.049592 38.122776 38.196317 38.270159 38.344151 38.418231 38.492240
38.566106 38.639668 38.712847 38.785477 38.857474 38.928668 38.998971 39.068213
39.136302 39.203070 39.268423 39.332194 39.394289 39.454547 39.512875 39.569118
39.623186 39.674932 39.724271 39.771066 39.815238 39.856663 39.895268 39.930944
39.963627 39.993223 40.019677 40.042914 40.062889 40.079545 40.092849 40.102762
40.109266 40.112340 40.111977 40.108179 40.100952 40.090315 40.076289 40.058914
40.038220 40.014267 39.987099 39.956792 39.923403 39.887023 39.847719 39.805599
39.760738 39.713259 39.663244 39.610827 39.556096 39.499197 39.440222 39.379326
39.316603 39.252215 39.186256 39.118894 39.050223 38.980413 38.909557 38.837826
38.765308 38.692174 38.618509 38.544480 38.470167 38.395733 38.321252 38.246881
38.172685 38.098817 38.025332 37.952377 37.879997 37.808330 37.737414 37.667376
37.598245 37.530137 37.463073 37.397158 37.332403 37.268903 37.206659 37.145756
37.086185 37.028019 36.971241 36.915914 36.862011 36.809584 36.758598 36.709094
36.661031 36.614438 36.569266 36.525536 36.483192 36.442244 36.402630 36.364352
36.327342 36.291592 36.257032 36.223644 36.191354 36.160136 36.129913 36.100651
36.072272 36.044734 36.017958 35.991895 35.966466 35.941615 35.917262 35.893349
35.869795 35.846536 35.823493 35.800599 35.777778
36.155556 36.183788 36.212099 36.240571 36.269279 36.298309 36.327729 36.357626
36.388065 36.419133 36.450889 36.483420 36.516778 36.551049 36.586277 36.622547
36.659896 36.698405 36.738103 36.779067 36.821317 36.864926 36.909904 36.956321
37.004173 37.053527 37.104367 37.156753 37.210660 37.266139 37.323153 37.381746
37.441870 37.503559 37.566752 37.631476 37.697657 37.765311 37.834354 37.904791
37.976524 38.049550 38.123759 38.199136 38.275559 38.353003 38.431335 38.510519
38.590411 38.670965 38.752027 38.833540 38.915343 38.997367 39.079444 39.161497
39.243350 39.324919 39.406021 39.486567 39.566370 39.645334 39.723272 39.800081
39.875575 39.949649 40.022118 40.092876 40.161742 40.228611 40.293307 40.355727
40.415705 40.473141 40.527879 40.579825 40.628836 40.674825 40.717663 40.757273
40.793543 40.826406 40.855766 40.881570 40.903741 40.922238 40.937007 40.948019
40.955240 40.958657 40.958259 40.954046 40.946028 40.934222 40.918660 40.899370
40.876409 40.849818 40.819673 40.786029 40.748982 40.708599 40.664992 40.618239
40.568471 40.515773 40.460291 40.402118 40.341410 40.278270 40.212862 40.145292
40.075736 40.004299 39.931163 39.856436 39.780303 39.702870 39.624325 39.544770
39.464393 39.383293 39.301657 39.219575 39.137232 39.054712 38.972193 38.889753
38.807562 38.725689 38.644297 38.563445 38.483288 38.403873 38.325346 38.247744
38.171202 38.095747 38.021502 37.948483 37.876802 37.806465 37.737570 37.670114
37.604182 37.539762 37.476927 37.415653 37.356004 37.297944 37.241525 37.186704
37.133521 37.081925 37.031942 36.983516 36.936662 36.891316 36.847482 36.805091
36.764138 36.724546 36.686301 36.649323 36.613587 36.579011 36.545559 36.513148
36.481734 36.451230 36.421587 36.392716 36.364560 36.337030 36.310063 36.283571
36.257485 36.231719 36.206197 36.180835 36.155556
36.533333 36.564352 36.595458 36.626738 36.658282 36.690171 36.722498 36.755337
36.788784 36.822907 36.857800 36.893526 36.930179 36.967812 37.006519 37.046345
37.087381 37.129663 37.173279 37.218255 37.264674 37.312553 37.361970 37.412930
37.465505 37.519689 37.575549 37.633064 37.692295 37.753208 37.815856 37.880192
37.946259 38.013999 38.083444 38.154522 38.227256 38.301560 38.377445 38.454813
38.533664 38.613885 38.695465 38.778278 38.862302 38.947398 39.033531 39.120551
39.208411 39.296949 39.386108 39.475714 39.565699 39.655882 39.746182 39.836410
39.926476 40.016186 40.105440 40.194039 40.281876 40.368748 40.454544 40.539059
40.622177 40.703695 40.783494 40.861374 40.937217 41.010826 41.082085 41.150807
41.216878 41.280120 41.340425 41.397629 41.451631 41.502281 41.549486 41.593115
41.633087 41.669287 41.701646 41.730073 41.754512 41.774892 41.791173 41.803308
41.811272 41.815040 41.814606 41.809969 41.801138 41.788137 41.770990 41.749747
41.724447 41.695162 41.661946 41.624895 41.584076 41.539604 41.491560 41.440078
41.385250 41.327227 41.266110 41.202064 41.135198 41.065691 40.993656 40.919282
40.842687 40.764067 40.683541 40.601312 40.517497 40.432302 40.345843 40.258326
40.169864 40.080662 39.990825 39.900557 39.809956 39.719219 39.628438 39.537802
39.447394 39.357396 39.267879 39.179016 39.090867 39.003596 38.917251 38.831984
38.747832 38.664934 38.583316 38.503104 38.424312 38.347054 38.271331 38.197245
38.124785 38.054039 37.984987 37.917702 37.852153 37.788401 37.726405 37.666213
37.607774 37.551123 37.496202 37.443033 37.391549 37.341761 37.293595 37.247051
37.202048 37.158575 37.116547 37.075941 37.036668 36.998696 36.961931 36.926333
36.891806 36.858299 36.825716 36.793998 36.763048 36.732800 36.703157 36.674045
36.645370 36.617052 36.588996 36.561121 36.533333
36.911111 36.944972 36.978927 37.013075 37.047505 37.082319 37.117600 37.153451
37.189951 37.227204 37.265279 37.304280 37.344272 37.385355 37.427584 37.471060
37.515827 37.561984 37.609563 37.658659 37.709294 37.761559 37.815463 37.871092
37.928442 37.987591 38.048524 38.111311 38.175924 38.242423 38.310767 38.381007
38.453087 38.527048 38.602819 38.680431 38.759798 38.840939 38.923755 39.008251
39.094312 39.181934 39.270987 39.361451 39.453184 39.546154 39.640204 39.735288
39.831239 39.927997 40.025381 40.123321 40.221625 40.320210 40.418874 40.517524
40.615951 40.714050 40.811606 40.908506 41.004530 41.099557 41.193365 41.285829
41.376724 41.465923 41.553203 41.638434 41.721400 41.801969 41.879933 41.955163
42.027460 42.096701 42.162699 42.225337 42.284443 42.339911 42.391584 42.439368
42.483128 42.522779 42.558210 42.589350 42.616111 42.638439 42.656270 42.669567
42.678291 42.682425 42.681955 42.676881 42.667217 42.652982 42.634215 42.610952
42.583259 42.551189 42.514833 42.474259 42.429582 42.380885 42.328304 42.271936
42.211935 42.148410 42.081534 42.011422 41.938264 41.862183 41.783380 41.701983
41.618203 41.532171 41.444104 41.354135 41.262485 41.169285 41.074760 40.979035
40.882335 40.784781 40.686596 40.587891 40.488887 40.389686 40.290501 40.191426
40.092665 39.994301 39.896529 39.799420 39.703158 39.607802 39.513524 39.420370
39.328499 39.237944 39.148851 39.061241 38.975244 38.890869 38.808232 38.727327
38.648259 38.571009 38.495666 38.422200 38.350684 38.281080 38.213444 38.147729
38.083977 38.022129 37.962216 37.904169 37.848006 37.793650 37.741106 37.690290
37.641195 37.593731 37.547878 37.503542 37.460692 37.419229 37.379112 37.340238
37.302558 37.265966 37.230403 37.195763 37.161978 37.128941 37.096577 37.064781
37.033470 37.002541 36.971904 36.941459 36.911111
37.288889 37.325651 37.362517 37.399587 37.436971 37.474761 37.513068 37.551982
37.591613 37.632042 37.673383 37.715708 37.759128 37.803707 37.849557 37.896729
37.945332 37.995410 38.047065 38.100330 38.155303 38.212004 38.270527 38.330877
38.393141 38.457311 38.523467 38.591587 38.661741 38.733892 38.808100 38.884315
38.962585 39.042844 39.125130 39.209359 39.295558 39.383627 39.473581 39.565303
39.658793 39.753922 39.850674 39.948903 40.048581 40.149546 40.251757 40.355036
40.459328 40.564444 40.670312 40.776730 40.883615 40.990754 41.098050 41.205280
41.312336 41.418987 41.525115 41.630482 41.734961 41.838311 41.940398 42.040979
42.139913 42.236959 42.331975 42.424721 42.515055 42.602743 42.687644 42.769534
42.848276 42.923658 42.995549 43.063752 43.128145 43.188549 43.244851 43.296894
43.344578 43.387769 43.426381 43.460305 43.489472 43.513799 43.533236 43.547727
43.557241 43.561750 43.561244 43.555724 43.545199 43.529698 43.509253 43.483921
43.453750 43.418826 43.379217 43.335034 43.286362 43.233337 43.176059 43.114685
43.049330 42.980172 42.907335 42.831017 42.751348 42.668543 42.582738 42.494160
42.402949 42.309341 42.213479 42.115603 42.015857 41.914485 41.811626 41.707525
41.602318 41.496248 41.389442 41.282141 41.174463 41.066641 40.958785 40.851119
40.743742 40.636869 40.530584 40.425092 40.320465 40.216895 40.114440 40.013277
39.913452 39.815127 39.718333 39.623219 39.529800 39.438210 39.348450 39.260638
39.174763 39.090926 39.009103 38.929380 38.851720 38.776192 38.702749 38.631446
38.562222 38.495118 38.430064 38.367085 38.306103 38.247129 38.190076 38.134941
38.081631 38.030130 37.980338 37.932228 37.885695 37.840698 37.797130 37.754939
37.714014 37.674295 37.635667 37.598061 37.561362 37.525491 37.490335 37.455807
37.421794 37.388203 37.354922 37.321854 37.288889
37.666667 37.706393 37.746231 37.786293 37.826686 37.867526 37.908914 37.950969
37.993783 38.037476 38.082132 38.127873 38.174771 38.222947 38.272465 38.323442
38.375931 38.430046 38.485828 38.543387 38.602750 38.664023 38.727218 38.792434
38.859670 38.929016 39.000457 39.074074 39.149836 39.227814 39.307960 39.390335
39.474875 39.561629 39.650515 39.741568 39.834693 39.929908 40.027101 40.126278
40.227307 40.330181 40.434751 40.540993 40.648744 40.757963 40.868470 40.980211
41.092990 41.206737 41.321241 41.436419 41.552046 41.668025 41.784120 41.900219
42.016078 42.131573 42.246451 42.360578 42.473694 42.585658 42.696207 42.805190
42.912347 43.017521 43.120452 43.220985 43.318862 43.413928 43.505936 43.594732
43.680079 43.761831 43.839765 43.913742 43.983558 44.049084 44.110137 44.166600
44.218315 44.265179 44.307060 44.343874 44.375514 44.401917 44.423006 44.438737
44.449063 44.453963 44.453422 44.447438 44.436030 44.419218 44.397051 44.369571
44.336856 44.298972 44.256024 44.208097 44.155325 44.097810 44.035713 43.969148
43.898302 43.823303 43.744356 43.661601 43.575262 43.485486 43.392512 43.296492
43.197676 43.096220 42.992383 42.886321 42.778296 42.668464 42.557089 42.444322
42.330427 42.215547 42.099944 41.983753 41.867229 41.750496 41.633802 41.517259
41.401106 41.285441 41.170492 41.056342 40.943207 40.831155 40.720387 40.610958
40.503052 40.396708 40.292096 40.189238 40.088288 39.989254 39.892271 39.797333
39.704559 39.613928 39.525541 39.439364 39.355481 39.273845 39.194523 39.117456
39.042695 38.970170 38.899914 38.831849 38.765992 38.702254 38.640639 38.581050
38.523476 38.467812 38.414034 38.362033 38.311770 38.263131 38.216066 38.170457
38.126243 38.083302 38.041564 38.000906 37.961246 37.922462 37.884464 37.847131
37.810363 37.774042 37.738063 37.702308 37.666667
38.044444 38.087202 38.130080 38.173195 38.216673 38.260622 38.305172 38.350424
38.396508 38.443518 38.491584 38.540792 38.591271 38.643095 38.696392 38.751225
38.807719 38.865924 38.925961 38.987869 39.051760 39.117660 39.185676 39.255818
39.328185 39.402771 39.479666 39.558849 39.640400 39.724278 39.810554 39.899171
39.990184 40.083520 40.179222 40.277196 40.377472 40.479938 40.584609 40.691354
40.800171 40.910913 41.023561 41.137949 41.254043 41.371658 41.490742 41.611096
41.732651 41.855190 41.978629 42.102735 42.227409 42.352405 42.477609 42.602762
42.727737 42.852266 42.976209 43.099290 43.221358 43.342133 43.461454 43.579040
43.694724 43.808223 43.919369 44.027881 44.133589 44.236222 44.335609 44.431491
44.523700 44.611991 44.696205 44.776112 44.851566 44.922355 44.988347 45.049355