# vtk DataFile Version 3.0
Steady-state temperature (Jacobi)
ASCII
DATASET STRUCTURED_POINTS
DIMENSIONS 181 181 1
ORIGIN 0.0 0.0 0.0
SPACING 0.05 0.05 1.0
POINT_DATA 32761
SCALARS Temperature float 1
LOOKUP_TABLE default
32.000000 32.000000 32.000000 32.000000 32.000000 32.000000 32.000000 32.000000
32.000000 32.000000 32.000000 32.000000 32.000000 32.000000 32.000000 32.000000
32.000000 32.000000 32.000000 32.000000 32.000000 32.000000 32.000000 32.000000
32.000000 32.000000 32.000000 32.000000 32.000000 32.000000 32.000000 32.000000
32.000000 32.000000 32.000000 32.000000 32.000000 32.000000 32.000000 32.000000
32.000000 32.000000 32.000000 32.000000 32.000000 32.000000 32.000000 32.000000
32.000000 32.000000 32.000000 32.000000 32.000000 32.000000 32.000000 32.000000
32.000000 32.000000 32.000000 32.000000 32.000000 32.000000 32.000000 32.000000
32.000000 32.000000 32.000000 32.000000 32.000000 32.000000 32.000000 32.000000
32.000000 32.000000 32.000000 32.000000 32.000000 32.000000 32.000000 32.000000
32.000000 32.000000 32.000000 32.000000 32.000000 32.000000 32.000000 32.000000
32.000000 32.000000 32.000000 32.000000 32.000000 32.000000 32.000000 32.000000
32.000000 32.000000 32.000000 32.000000 32.000000 32.000000 32.000000 32.000000
32.000000 32.000000 32.000000 32.000000 32.000000 32.000000 32.000000 32.000000
32.000000 32.000000 32.000000 32.000000 32.000000 32.000000 32.000000 32.000000
32.000000 32.000000 32.000000 32.000000 32.000000 32.000000 32.000000 32.000000
32.000000 32.000000 32.000000 32.000000 32.000000 32.000000 32.000000 32.000000
32.000000 32.000000 32.000000 32.000000 32.000000 32.000000 32.000000 32.000000
32.000000 32.000000 32.000000 32.000000 32.000000 32.000000 32.000000 32.000000
32.000000 32.000000 32.000000 32.000000 32.000000 32.000000 32.000000 32.000000
32.000000 32.000000 32.000000 32.000000 32.000000 32.000000 32.000000 32.000000
32.000000 32.000000 32.000000 32.000000 32.000000 32.000000 32.000000 32.000000
32.000000 32.000000 32.000000 32.000000 32.000000
32.377778 32.387453 32.397130 32.406813 32.416504 32.426206 32.435921 32.445652
32.455402 32.465172 32.474965 32.484784 32.494630 32.504506 32.514413 32.524352
32.534326 32.544336 32.554383 32.564467 32.574590 32.584753 32.594955 32.605196
32.615477 32.625797 32.636156 32.646552 32.656984 32.667452 32.677952 32.688483
32.699043 32.709629 32.720237 32.730865 32.741509 32.752164 32.762827 32.773493
32.784157 32.794813 32.805455 32.816079 32.826676 32.837242 32.847767 32.858247
32.868672 32.879034 32.889326 32.899540 32.909665 32.919694 32.929617 32.939425
32.949107 32.958655 32.968058 32.977306 32.986389 32.995296 33.004018 33.012543
33.020862 33.028964 33.036839 33.044476 33.051865 33.058997 33.065862 33.072450
33.078751 33.084757 33.090459 33.095848 33.100917 33.105658 33.110063 33.114126
33.117840 33.121200 33.124201 33.126836 33.129104 33.130998 33.132518 33.133660
33.134422 33.134803 33.134803 33.134422 33.133660 33.132518 33.130999 33.129105
33.126840 33.124206 33.121208 33.117852 33.114142 33.110084 33.105685 33.100951
33.095890 33.090510 33.084819 33.078826 33.072538 33.065966 33.059118 33.052005
33.044636 33.037021 33.029171 33.021096 33.012806 33.004311 32.995623 32.986751
32.977707 32.968500 32.959141 32.949639 32.940006 32.930251 32.920383 32.910413
32.900349 32.890200 32.879977 32.869685 32.859336 32.848935 32.838492 32.828012
32.817504 32.806975 32.796430 32.785875 32.775317 32.764761 32.754212 32.743675
32.733153 32.722652 32.712175 32.701724 32.691305 32.680918 32.670567 32.660253
32.649979 32.639746 32.629555 32.619407 32.609303 32.599242 32.589227 32.579255
32.569328 32.559443 32.549601 32.539801 32.530041 32.520320 32.510636 32.500988
32.491373 32.481790 32.472237 32.462711 32.453210 32.443731 32.434272 32.424830
32.415402 32.405986 32.396578 32.387177 32.377778
32.755556 32.774907 32.794264 32.813632 32.833017 32.852422 32.871855 32.891319
32.910821 32.930364 32.949953 32.969593 32.989289 33.009042 33.028859 33.048741
33.068692 33.088715 33.108812 33.128984 33.149234 33.169563 33.189971 33.210458
33.231025 33.251669 33.272392 33.293189 33.314059 33.334999 33.356005 33.377073
33.398200 33.419377 33.440601 33.461864 33.483159 33.504477 33.525811 33.547151
33.568486 33.589806 33.611101 33.632356 33.653561 33.674701 33.695762 33.716731
33.737591 33.758326 33.778921 33.799359 33.819621 33.839689 33.859547 33.879173
33.898550 33.917657 33.936475 33.954982 33.973160 33.990986 34.008441 34.025504
34.042153 34.058368 34.074129 34.089414 34.104204 34.118479 34.132218 34.145404
34.158016 34.170038 34.181451 34.192238 34.202385 34.211873 34.220691 34.228824
34.236259 34.242984 34.248990 34.254266 34.258804 34.262597 34.265638 34.267924
34.269450 34.270213 34.270213 34.269449 34.267924 34.265639 34.262599 34.258808
34.254272 34.249000 34.243000 34.236281 34.228855 34.220732 34.211927 34.202452
34.192322 34.181554 34.170162 34.158166 34.145580 34.132426 34.118720 34.104483
34.089734 34.074494 34.058782 34.042620 34.026029 34.009028 33.991640 33.973885
33.955784 33.937359 33.918629 33.899615 33.880337 33.860815 33.841068 33.821116
33.800977 33.780670 33.760211 33.739618 33.718908 33.698098 33.677200 33.656233
33.635207 33.614139 33.593040 33.571923 33.550799 33.529679 33.508573 33.487491
33.466440 33.445431 33.424469 33.403563 33.382717 33.361938 33.341229 33.320597
33.300043 33.279571 33.259184 33.238884 33.218671 33.198547 33.178511 33.158564
33.138705 33.118933 33.099246 33.079642 33.060119 33.040674 33.021303 33.002004
32.982772 32.963604 32.944495 32.925441 32.906436 32.887476 32.868556 32.849670
32.830812 32.811978 32.793161 32.774355 32.755556
33.133333 33.162366 33.191407 33.220464 33.249546 33.278660 33.307815 33.337017
33.366275 33.395596 33.424986 33.454453 33.484002 33.513640 33.543372 33.573203
33.603137 33.633180 33.663333 33.693601 33.723985 33.754488 33.785110 33.815852
33.846712 33.877691 33.908786 33.939995 33.971313 34.002737 34.034261 34.065879
34.097583 34.129366 34.161218 34.193130 34.225090 34.257087 34.289107 34.321136
34.353160 34.385162 34.417125 34.449031 34.480861 34.512595 34.544211 34.575689
34.607004 34.638134 34.669053 34.699736 34.730156 34.760288 34.790101 34.819570
34.848663 34.877353 34.905608 34.933400 34.960695 34.987464 35.013676 35.039299
35.064301 35.088653 35.112322 35.135278 35.157490 35.178929 35.199564 35.219368
35.238311 35.256367 35.273509 35.289712 35.304951 35.319204 35.332449 35.344665
35.355833 35.365935 35.374956 35.382882 35.389698 35.395396 35.399965 35.403398
35.405690 35.406836 35.406836 35.405689 35.403398 35.399966 35.395399 35.389704
35.382891 35.374972 35.365959 35.355867 35.344711 35.332511 35.319284 35.305052
35.289838 35.273663 35.256554 35.238534 35.219632 35.199875 35.179291 35.157908
35.135758 35.112869 35.089274 35.065002 35.040086 35.014556 34.988445 34.961783
34.934603 34.906935 34.878811 34.850261 34.821315 34.792003 34.762356 34.732399
34.702164 34.671675 34.640961 34.610046 34.578956 34.547714 34.516345 34.484868
34.453308 34.421683 34.390013 34.358315 34.326609 34.294908 34.263230 34.231587
34.199995 34.168463 34.137004 34.105628 34.074344 34.043159 34.012083 33.981120
33.950276 33.919556 33.888964 33.858501 33.828171 33.797974 33.767911 33.737981
33.708183 33.678516 33.648977 33.619563 33.590271 33.561095 33.532033 33.503077
33.474223 33.445465 33.416795 33.388208 33.359695 33.331250 33.302864 33.274529
33.246238 33.217981 33.189751 33.161538 33.133333
33.511111 33.549831 33.588562 33.627315 33.666101 33.704930 33.743813 33.782760
33.821782 33.860887 33.900086 33.939387 33.978799 34.018328 34.057984 34.097773
34.137700 34.177772 34.217992 34.258366 34.298896 34.339584 34.380433 34.421441
34.462610 34.503936 34.545420 34.587054 34.628837 34.670761 34.712820 34.755004
34.797306 34.839713 34.882214 34.924796 34.967443 35.010140 35.052870 35.095613
35.138350 35.181058 35.223717 35.266300 35.308784 35.351140 35.393341 35.435358
35.477160 35.518714 35.559989 35.600950 35.641562 35.681789 35.721594 35.760938
35.799783 35.838090 35.875819 35.912927 35.949376 35.985123 36.020127 36.054345
36.087736 36.120257 36.151869 36.182529 36.212196 36.240831 36.268394 36.294845
36.320149 36.344268 36.367166 36.388811 36.409169 36.428209 36.445902 36.462222
36.477141 36.490638 36.502690 36.513278 36.522385 36.529997 36.536101 36.540688
36.543749 36.545281 36.545281 36.543749 36.540688 36.536102 36.530000 36.522393
36.513291 36.502711 36.490669 36.477187 36.462284 36.445985 36.428315 36.409304
36.388979 36.367373 36.344517 36.320447 36.295199 36.268808 36.241313 36.212754
36.183169 36.152599 36.121086 36.088670 36.055394 36.021301 35.986431 35.950828
35.914532 35.877587 35.840033 35.801913 35.763264 35.724129 35.684546 35.644553
35.604187 35.563485 35.522483 35.481215 35.439713 35.398012 35.356139 35.314127
35.272003 35.229794 35.187526 35.145224 35.102909 35.060605 35.018331 34.976107
34.933948 34.891874 34.849897 34.808033 34.766291 34.724685 34.683222 34.641913
34.600763 34.559780 34.518967 34.478329 34.437868 34.397586 34.357482 34.317558
34.277810 34.238238 34.198837 34.159603 34.120532 34.081618 34.042854 34.004235
33.965751 33.927395 33.889158 33.851030 33.813003 33.775066 33.737208 33.699419
33.661687 33.624003 33.586353 33.548726 33.511111
33.888889 33.937305 33.985734 34.034191 34.082689 34.131242 34.179863 34.228564
34.277358 34.326258 34.375275 34.424420 34.473704 34.523138 34.572729 34.622487
34.672419 34.722534 34.772834 34.823329 34.874018 34.924908 34.975999 35.027292
35.078785 35.130479 35.182369 35.234451 35.286718 35.339165 35.391780 35.444557
35.497479 35.550538 35.603714 35.656994 35.710356 35.763784 35.817254 35.870743
35.924226 35.977676 36.031064 36.084362 36.137535 36.190552 36.243376 36.295973
36.348301 36.400323 36.451996 36.503279 36.554126 36.604493 36.654333 36.703600
36.752242 36.800214 36.847461 36.893936 36.939585 36.984357 37.028199 37.071059
37.112884 37.153623 37.193222 37.231631 37.268796 37.304671 37.339202 37.372343
37.404046 37.434266 37.462957 37.490079 37.515587 37.539446 37.561618 37.582068
37.600764 37.617678 37.632781 37.646050 37.657463 37.667002 37.674652 37.680401
37.684238 37.686158 37.686157 37.684237 37.680401 37.674654 37.667007 37.657472
37.646066 37.632807 37.617718 37.600821 37.582146 37.561721 37.539580 37.515756
37.490289 37.463215 37.434578 37.404419 37.372785 37.339720 37.305274 37.269493
37.232431 37.194134 37.154658 37.114052 37.072371 37.029666 36.985992 36.941399
36.895942 36.849672 36.802643 36.754904 36.706508 36.657503 36.607939 36.557863
36.507325 36.456366 36.405034 36.353369 36.301417 36.249214 36.196801 36.144214
36.091490 36.038661 35.985760 35.932818 35.879863 35.826923 35.774023 35.721185
35.668435 35.615789 35.563268 35.510888 35.458665 35.406612 35.354742 35.303063
35.251587 35.200320 35.149268 35.098436 35.047827 34.997442 34.947283 34.897348
34.847637 34.798144 34.748868 34.699801 34.650940 34.602275 34.553800 34.505505
34.457381 34.409417 34.361603 34.313926 34.266375 34.218937 34.171599 34.124347
34.077168 34.030047 33.982970 33.935922 33.888889
34.266667 34.324788 34.382927 34.441098 34.499320 34.557607 34.615976 34.674442
34.733021 34.791727 34.850574 34.909576 34.968747 35.028096 35.087638 35.147380
35.207333 35.267505 35.327905 35.388536 35.449405 35.510515 35.571869 35.633466
35.695308 35.757390 35.819712 35.882265 35.945044 36.008040 36.071243 36.134639
36.198216 36.261955 36.325841 36.389852 36.453969 36.518163 36.582413 36.646687
36.710958 36.775191 36.839354 36.903409 36.967321 37.031045 37.094542 37.157766
37.220674 37.283214 37.345340 37.406997 37.468136 37.528698 37.588632 37.647876
37.706376 37.764068 37.820895 37.876793 37.931702 37.985557 38.038297 38.089857
38.140176 38.189188 38.236832 38.283045 38.327766 38.370932 38.412486 38.452366
38.490519 38.526887 38.561418 38.594058 38.624761 38.653477 38.680164 38.704779
38.727283 38.747642 38.765822 38.781794 38.795534 38.807017 38.816226 38.823145
38.827765 38.830076 38.830076 38.827764 38.823146 38.816228 38.807022 38.795545
38.781815 38.765854 38.747690 38.727352 38.704872 38.680288 38.653637 38.624964
38.594311 38.561727 38.527262 38.490967 38.452897 38.413108 38.371656 38.328602
38.284005 38.237928 38.190430 38.141578 38.091432 38.040059 37.987519 37.933879
37.879200 37.823548 37.766983 37.709570 37.651366 37.592435 37.532833 37.472621
37.411852 37.350583 37.288866 37.226756 37.164299 37.101547 37.038543 36.975335
36.911963 36.848469 36.784891 36.721268 36.657630 36.594015 36.530449 36.466963
36.403581 36.340331 36.277231 36.214306 36.151569 36.089041 36.026732 35.964659
35.902829 35.841254 35.779939 35.718890 35.658110 35.597603 35.537367 35.477404
35.417708 35.358280 35.299111 35.240197 35.181529 35.123099 35.064898 35.006915
34.949137 34.891554 34.834150 34.776913 34.719827 34.662878 34.606049 34.549325
34.492687 34.436120 34.379606 34.323128 34.266667
34.644444 34.712284 34.780144 34.848043 34.915999 34.984034 35.052164 35.120409
35.188785 35.257312 35.326004 35.394879 35.463950 35.533234 35.602741 35.672486
35.742478 35.812729 35.883245 35.954035 36.025105 36.096459 36.168098 36.240027
36.312242 36.384743 36.457523 36.530579 36.603900 36.677479 36.751301 36.825355
36.899621 36.974083 37.048717 37.123503 37.198413 37.273422 37.348495 37.423604
37.498711 37.573780 37.648769 37.723639 37.798341 37.872832 37.947059 38.020974
38.094519 38.167642 38.240282 38.312382 38.383876 38.454703 38.524796 38.594090
38.662513 38.729999 38.796474 38.861868 38.926106 38.989117 39.050825 39.111157
39.170037 39.227394 39.283150 39.337236 39.389576 39.440101 39.488739 39.535423
39.580084 39.622659 39.663083 39.701297 39.737242 39.770864 39.802109 39.830930
39.857281 39.881120 39.902408 39.921111 39.937200 39.950647 39.961431 39.969534
39.974943 39.977650 39.977650 39.974943 39.969534 39.961433 39.950653 39.937213
39.921135 39.902445 39.881176 39.857361 39.831039 39.802254 39.771051 39.737478
39.701591 39.663444 39.623096 39.580607 39.536042 39.489465 39.440946 39.390552
39.338356 39.284428 39.228843 39.171673 39.112994 39.052879 38.991406 38.928646
38.864676 38.799569 38.733400 38.666239 38.598161 38.529233 38.459527 38.389108
38.318045 38.246399 38.174237 38.101614 38.028594 37.955230 37.881579 37.807690
37.733617 37.659403 37.585097 37.510738 37.436371 37.362030 37.287754 37.213573
37.139520 37.065621 36.991905 36.918392 36.845107 36.772066 36.699288 36.626785
36.554572 36.482657 36.411051 36.339756 36.268781 36.198124 36.127790 36.057773
35.988075 35.918687 35.849607 35.780825 35.712334 35.644121 35.576178 35.508490
35.441045 35.373826 35.306820 35.240008 35.173375 35.106901 35.040570 34.974360
34.908253 34.842228 34.776265 34.710345 34.644444
35.022222 35.099795 35.177390 35.255029 35.332737 35.410532 35.488439 35.566478
35.644669 35.723032 35.801586 35.880350 35.959342 36.038577 36.118071 36.197837
36.277891 36.358240 36.438899 36.519871 36.601168 36.682791 36.764747 36.847034
36.929654 37.012603 37.095878 37.179470 37.263372 37.347570 37.432054 37.516804
37.601804 37.687030 37.772462 37.858070 37.943827 38.029698 38.115653 38.201650
38.287653 38.373614 38.459494 38.545237 38.630799 38.716120 38.801149 38.885821
38.970080 39.053856 39.137088 39.219703 39.301633 39.382801 39.463136 39.542556
39.620988 39.698347 39.774555 39.849525 39.923179 39.995426 40.066187 40.135371
40.202898 40.268678 40.332630 40.394665 40.454705 40.512663 40.568461 40.622018
40.673259 40.722107 40.768491 40.812339 40.853587 40.892168 40.928026 40.961101
40.991343 41.018702 41.043135 41.064602 41.083067 41.098502 41.110879 41.120180
41.126389 41.129496 41.129496 41.126389 41.120180 41.110882 41.098509 41.083083
41.064629 41.043178 41.018767 40.991435 40.961226 40.928191 40.892382 40.853857
40.812676 40.768904 40.722607 40.673857 40.622726 40.569291 40.513629 40.455821
40.395946 40.334090 40.270335 40.204768 40.137471 40.068535 39.998042 39.926081
39.852735 39.778092 39.702233 39.625246 39.547209 39.468206 39.388313 39.307612
39.226175 39.144079 39.061392 38.978188 38.894530 38.810486 38.726116 38.641483
38.556640 38.471645 38.386547 38.301398 38.216240 38.131121 38.046078 37.961152
37.876374 37.791781 37.707399 37.623258 37.539378 37.455785 37.372495 37.289527
37.206892 37.124605 37.042671 36.961102 36.879898 36.799066 36.718602 36.638509
36.558779 36.479411 36.400395 36.321725 36.243387 36.165373 36.087667 36.010257
35.933125 35.856256 35.779629 35.703228 35.627032 35.551020 35.475170 35.399462
35.323871 35.248375 35.172951 35.097575 35.022222
35.400000 35.487321 35.574667 35.662065 35.749538 35.837113 35.924813 36.012663
36.100685 36.188903 36.277339 36.366013 36.454944 36.544152 36.633654 36.723468
36.813604 36.904081 36.994905 37.086090 37.177641 37.269566 37.361867 37.454548
37.547606 37.641042 37.734847 37.829017 37.923539 38.018403 38.113590 38.209087
38.304868 38.400913 38.497192 38.593679 38.690337 38.787135 38.884029 38.980981
39.077942 39.174869 39.271704 39.368399 39.464890 39.561122 39.657026 39.752540
39.847590 39.942108 40.036014 40.129235 40.221686 40.313288 40.403952 40.493596
40.582126 40.669456 40.755488 40.840134 40.923294 41.004877 41.084783 41.162918
41.239182 41.313482 41.385718 41.455798 41.523624 41.589105 41.652147 41.712663
41.770562 41.825763 41.878179 41.927735 41.974351 42.017959 42.058487 42.095874
42.130057 42.160984 42.188603 42.212870 42.233745 42.251194 42.265187 42.275702
42.282721 42.286233 42.286233 42.282720 42.275702 42.265190 42.251202 42.233763
42.212901 42.188652 42.161057 42.130160 42.096014 42.058674 42.018200 41.974657
41.928114 41.878644 41.826326 41.771235 41.713460 41.653081 41.590192 41.524879
41.457239 41.387362 41.315346 41.241286 41.165280 41.087425 41.007820 40.926559
40.843744 40.759467 40.673828 40.586916 40.498830 40.409656 40.319489 40.228412
40.136515 40.043877 39.950585 39.856711 39.762336 39.667530 39.572366 39.476908
39.381225 39.285374 39.189416 39.093404 38.997394 38.901429 38.805561 38.709827
38.614271 38.518925 38.423827 38.329002 38.234483 38.140288 38.046444 37.952964
37.859868 37.767166 37.674871 37.582988 37.491524 37.400480 37.309858 37.219655
37.129868 37.040490 36.951514 36.862928 36.774723 36.686883 36.599395 36.512240
36.425403 36.338862 36.252598 36.166589 36.080813 35.995245 35.909862 35.824638
35.739549 35.654567 35.569666 35.484819 35.400000
35.777778 35.874865 35.971980 36.069153 36.166411 36.263783 36.361295 36.458975
36.556850 36.654943 36.753281 36.851886 36.950781 37.049985 37.149521 37.249405
37.349655 37.450283 37.551306 37.652731 37.754571 37.856829 37.959513 38.062623
38.166161 38.270121 38.374502 38.479292 38.584483 38.690058 38.796003 38.902296
39.008917 39.115834 39.223024 39.330449 39.438077 39.545863 39.653770 39.761745
39.869743 39.977706 40.085581 40.193303 40.300813 40.408037 40.514909 40.621351
40.727290 40.832639 40.937320 41.041241 41.144318 41.246452 41.347553 41.447520
41.546258 41.643661 41.739629 41.834053 41.926833 42.017856 42.107018 42.194208
42.279320 42.362243 42.442871 42.521095 42.596811 42.669912 42.740298 42.807864
42.872516 42.934155 42.992691 43.048033 43.100098 43.148802 43.194070 43.235830
43.274014 43.308561 43.339415 43.366524 43.389845 43.409338 43.424972 43.436719
43.444561 43.448485 43.448485 43.444561 43.436719 43.424975 43.409348 43.389865
43.366559 43.339470 43.308642 43.274129 43.235986 43.194278 43.149070 43.100437
43.048455 42.993209 42.934781 42.873265 42.808750 42.741337 42.671121 42.598207
42.522696 42.444697 42.364314 42.281657 42.196833 42.109954 42.021125 41.930461
41.838065 41.744050 41.648518 41.551580 41.453335 41.353890 41.253341 41.151790
41.049329 40.946056 40.842056 40.737423 40.632235 40.526579 40.420529 40.314165
40.207554 40.100768 39.993869 39.886922 39.779980 39.673102 39.566335 39.459731
39.353328 39.247171 39.141293 39.035732 38.930513 38.825668 38.721215 38.617179
38.513573 38.410415 38.307712 38.205478 38.103712 38.002422 37.901605 37.801261
37.701382 37.601965 37.502998 37.404471 37.306370 37.208680 37.111383 37.014463
36.917897 36.821665 36.725742 36.630106 36.534730 36.439589 36.344654 36.249899
36.155293 36.060808 35.966414 35.872081 35.777778
36.155556 36.262428 36.369332 36.476300 36.583362 36.690551 36.797896 36.905428
37.013175 37.121167 37.229430 37.337991 37.446872 37.556101 37.665696 37.775681
37.886071 37.996885 38.108135 38.219838 38.331999 38.444631 38.557735 38.671317
38.785374 38.899908 39.014908 39.130370 39.246278 39.362621 39.479377 39.596529
39.714046 39.831904 39.950067 40.068503 40.187167 40.306021 40.425012 40.544094
40.663207 40.782297 40.901294 41.020139 41.138755 41.257071 41.375006 41.492481
41.609406 41.725698 41.841256 41.955992 42.069801 42.182585 42.294234 42.404646
42.513704 42.621303 42.727323 42.831651 42.934166 43.034754 43.133289 43.229658
43.323734 43.415401 43.504536 43.591023 43.674740 43.755575 43.833410 43.908136
43.979640 44.047819 44.112568 44.173789 44.231385 44.285269 44.335353 44.381558
44.423808 44.462036 44.496177 44.526177 44.551984 44.573556 44.590857 44.603858
44.612537 44.616880 44.616880 44.612536 44.603859 44.590861 44.573567 44.552006
44.526215 44.496238 44.462126 44.423935 44.381731 44.335582 44.285565 44.231759
44.174254 44.113137 44.048508 43.980464 43.909111 43.834553 43.756905 43.676276
43.592785 43.506545 43.417680 43.326305 43.232545 43.136518 43.038350 42.938156
42.836063 42.732185 42.626646 42.519557 42.411041 42.301203 42.190162 42.078019
41.964888 41.850864 41.736055 41.620551 41.504451 41.387841 41.270811 41.153440
41.035813 40.917998 40.800074 40.682101 40.564151 40.446276 40.328538 40.210984
40.093668 39.976627 39.859908 39.743542 39.627568 39.512008 39.396895 39.282245
39.168081 39.054414 38.941261 38.828627 38.716520 38.604940 38.493892 38.383367
38.273364 38.163872 38.054884 37.946384 37.838359 37.730790 37.623661 37.516947
37.410629 37.304681 37.199079 37.093793 36.988798 36.884062 36.779557 36.675249
36.571109 36.467103 36.363198 36.259360 36.155556
36.533333 36.650012 36.766725 36.883509 37.000397 37.117425 37.234625 37.352031
37.469676 37.587589 37.705803 37.824344 37.943242 38.062521 38.182207 38.302321
38.422885 38.543916 38.665433 38.787446 38.909971 39.033013 39.156583 39.280679
39.405306 39.530458 39.656133 39.782317 39.909002 40.036168 40.163801 40.291870
40.420355 40.549219 40.678432 40.807949 40.937733 41.067731 41.197897 41.328168
41.458491 41.588796 41.719018 41.849080 41.978909 42.108418 42.237528 42.366143
42.494174 42.621517 42.748078 42.873745 42.998414 43.121968 43.244297 43.365277
43.484792 43.602714 43.718922 43.833282 43.945671 44.055953 44.164000 44.269676
44.372853 44.473392 44.571167 44.666042 44.757890 44.846579 44.931987 45.013987
45.092460 45.167287 45.238356 45.305555 45.368782 45.427934 45.482920 45.533648
45.580038 45.622012 45.659501 45.692443 45.720783 45.744472 45.763471 45.777749
45.787280 45.792049 45.792049 45.787280 45.777750 45.763476 45.744484 45.720807
45.692485 45.659568 45.622110 45.580177 45.533837 45.483170 45.428257 45.369191
45.306063 45.238978 45.168039 45.093359 45.015051 44.933235 44.848030 44.759566
44.667964 44.573359 44.475878 44.375658 44.272826 44.167523 44.059876 43.950024
43.838095 43.724226 43.608541 43.491176 43.372252 43.251899 43.130232 43.007378
42.883447 42.758558 42.632814 42.506329 42.379199 42.251528 42.123405 41.994927
41.866175 41.737237 41.608186 41.479101 41.350045 41.221091 41.092293 40.963714
40.835400 40.707405 40.579767 40.452532 40.325730 40.199398 40.073558 39.948240
39.823457 39.699233 39.575574 39.452495 39.329997 39.208087 39.086760 38.966018
38.845850 38.726250 38.607203 38.488699 38.370716 38.253240 38.136247 38.019715
37.903617 37.787930 37.672621 37.557665 37.443026 37.328675 37.214577 37.100699
36.987003 36.873456 36.760020 36.646658 36.533333
36.911111 37.037618 37.164163 37.290785 37.417522 37.544412 37.671491 37.798797
37.926362 38.054225 38.182414 38.310966 38.439907 38.569268 38.699074 38.829353
38.960123 39.091410 39.223228 39.355595 39.488522 39.622023 39.756100 39.890762
40.026005 40.161833 40.298233 40.435202 40.572722 40.710779 40.849349 40.988412
41.127932 41.267882 41.408219 41.548905 41.689889 41.831125 41.972551 42.114113
42.255739 42.397366 42.538912 42.680305 42.821454 42.962277 43.102675 43.242556
43.381811 43.520340 43.658027 43.794762 43.930421 44.064888 44.198031 44.329726
44.459835 44.588230 44.714766 44.839310 44.961715 45.081843 45.199544 45.314679
45.427097 45.536658 45.643212 45.746619 45.846733 45.943417 46.036528 46.125934
46.211499 46.293097 46.370601 46.443892 46.512852 46.577376 46.637355 46.692696
46.743304 46.789099 46.830001 46.865944 46.896866 46.922715 46.943447 46.959027
46.969428 46.974632 46.974632 46.969427 46.959028 46.943453 46.922729 46.896893
46.865991 46.830074 46.789206 46.743456 46.692902 46.637628 46.577727 46.513296
46.444443 46.371275 46.293913 46.212474 46.127087 46.037880 45.944990 45.848549
45.748702 45.645587 45.539352 45.430136 45.318092 45.203360 45.086093 44.966430
44.844523 44.720511 44.594542 44.466751 44.337281 44.206265 44.073840 43.940131
43.805271 43.669377 43.532576 43.394977 43.256697 43.117838 42.978510 42.838804
42.698822 42.558646 42.418369 42.278062 42.137810 41.997675 41.857731 41.718032
41.578641 41.439604 41.300974 41.162789 41.025092 40.887913 40.751285 40.615230
40.479773 40.344928 40.210712 40.077131 39.944196 39.811903 39.680258 39.549251
39.418879 39.289128 39.159989 39.031441 38.903470 38.776052 38.649166 38.522784
38.396881 38.271424 38.146386 38.021731 37.897427 37.773437 37.649725 37.526251
37.402980 37.279870 37.156883 37.033976 36.911111
37.288889 37.425247 37.561648 37.698133 37.834743 37.971519 38.108502 38.245732
38.383247 38.521083 38.659280 38.797869 38.936886 39.076359 39.216322 39.356797
39.497814 39.639392 39.781555 39.924316 40.067693 40.211695 40.356333 40.501608
40.647527 40.794082 40.941273 41.089084 41.237508 41.386521 41.536106 41.686230
41.836870 41.987982 42.139533 42.291471 42.443753 42.596317 42.749109 42.902058
43.055100 43.208153 43.361143 43.513979 43.666576 43.818831 43.970651 44.121923
44.272544 44.422391 44.571351 44.719293 44.866096 45.011619 45.155733 45.298291
45.439156 45.578175 45.715204 45.850086 45.982672 46.112802 46.240323 46.365072
46.486896 46.605632 46.721126 46.833216 46.941752 47.046575 47.147539 47.244490
47.337288 47.425787 47.509856 47.589358 47.664172 47.734174 47.799253 47.859299
47.914217 47.963911 48.008300 48.047307 48.080867 48.108922 48.131424 48.148334
48.159623 48.165272 48.165272 48.159623 48.148335 48.131431 48.108937 48.080897
48.047358 48.008379 47.964027 47.914381 47.859522 47.799547 47.734553 47.664651
47.589953 47.510584 47.426666 47.338338 47.245732 47.148996 47.048270 46.943708
46.835460 46.723684 46.608532 46.490169 46.368747 46.244432 46.117378 45.987750
45.855699 45.721390 45.584971 45.446602 45.306426 45.164599 45.021257 44.876550
44.730608 44.583572 44.435565 44.286719 44.137149 43.986977 43.836308 43.685257
43.533916 43.382392 43.230767 43.079136 42.927573 42.776162 42.624965 42.474057
42.323491 42.173329 42.023617 41.874406 41.725731 41.577634 41.430142 41.283287
41.137085 40.991562 40.846725 40.702591 40.559159 40.416437 40.274419 40.133105
39.992482 39.852541 39.713265 39.574640 39.436642 39.299250 39.162435 39.026174
38.890433 38.755182 38.620384 38.486007 38.352010 38.218356 38.085005 37.951915
37.819045 37.686351 37.553789 37.421317 37.288889
37.666667 37.812902 37.959182 38.105554 38.252062 38.398751 38.545665 38.692846
38.840337 38.988179 39.136410 39.285070 39.434193 39.583815 39.733967 39.884680
40.035979 40.187893 40.340440 40.493643 40.647514 40.802071 40.957318 41.113266
41.269913 41.427262 41.585301 41.744027 41.903420 42.063466 42.224137 42.385410
42.547246 42.709615 42.872465 43.035756 43.199428 43.363429 43.527687 43.692140
43.856706 44.021311 44.185862 44.350273 44.514441 44.678270 44.841644 45.004457
45.166582 45.327903 45.488283 45.647595 45.805693 45.962441 46.117684 46.271278
46.423061 46.572881 46.720570 46.865968 47.008905 47.149216 47.286725 47.421268
47.552667 47.680754 47.805354 47.926301 48.043420 48.156550 48.265520 48.370175
48.470352 48.565902 48.656672 48.742523 48.823313 48.898916 48.969204 49.034064
49.093385 49.147069 49.195022 49.237165 49.273423 49.303735 49.328047 49.346318
49.358516 49.364620 49.364620 49.358516 49.346320 49.328054 49.303752 49.273455
49.237220 49.195107 49.147194 49.093561 49.034304 48.969520 48.899323 48.823827
48.743161 48.657452 48.566845 48.471478 48.371507 48.267082 48.158366 48.045516
47.928705 47.808095 47.683863 47.556173 47.425206 47.291128 47.154118 47.014344
46.871982 46.727196 46.580162 46.431037 46.279992 46.127180 45.972764 45.816890
45.659714 45.501373 45.342015 45.181767 45.020766 44.859132 44.696992 44.534452
44.371630 44.208623 44.045536 43.882454 43.719473 43.556667 43.394119 43.231892
43.070058 42.908671 42.747791 42.587460 42.427729 42.268630 42.110202 41.952468
41.795458 41.639184 41.483669 41.328915 41.174934 41.021724 40.869286 40.717611
40.566693 40.416514 40.267064 40.118317 39.970255 39.822850 39.676076 39.529899
39.384291 39.239212 39.094628 38.950498 38.806784 38.663440 38.520425 38.377694
38.235201 38.092899 37.950741 37.808680 37.666667
38.044444 38.200582 38.356768 38.513053 38.669486 38.826114 38.982985 39.140146
39.297643 39.455519 39.613818 39.772580 39.931845 40.091649 40.252030 40.413016
40.574642 40.736931 40.899911 41.063600 41.228019 41.393179 41.559096 41.725770
41.893212 42.061413 42.230374 42.400080 42.570522 42.741673 42.913518 43.086018
43.259147 43.432857 43.607111 43.781850 43.957024 44.132565 44.308410 44.484479
44.660699 44.836975 45.013225 45.189341 45.365228 45.540768 45.715851 45.890350
46.064144 46.237091 46.409062 46.579904 46.749476 46.917616 47.084173 47.248976
47.411866 47.572665 47.731205 47.887302 48.040782 48.191458 48.339151 48.483670
48.624837 48.762457 48.896353 49.026333 49.152220 49.273828 49.390983 49.503505
49.611229 49.713982 49.811609 49.903950 49.990859 50.072190 50.147813 50.217598