# vtk DataFile Version 3.0
Steady-state temperature (Jacobi)
ASCII
DATASET STRUCTURED_POINTS
DIMENSIONS 181 181 1
ORIGIN 0.0 0.0 0.0
SPACING 0.05 0.05 1.0
POINT_DATA 32761
SCALARS Temperature float 1
LOOKUP_TABLE default
32.000000 32.000000 32.000000 32.000000 32.000000 32.000000 32.000000 32.000000
32.000000 32.000000 32.000000 32.000000 32.000000 32.000000 32.000000 32.000000
32.000000 32.000000 32.000000 32.000000 32.000000 32.000000 32.000000 32.000000
32.000000 32.000000 32.000000 32.000000 32.000000 32.000000 32.000000 32.000000
32.000000 32.000000 32.000000 32.000000 32.000000 32.000000 32.000000 32.000000
32.000000 32.000000 32.000000 32.000000 32.000000 32.000000 32.000000 32.000000
32.000000 32.000000 32.000000 32.000000 32.000000 32.000000 32.000000 32.000000
32.000000 32.000000 32.000000 32.000000 32.000000 32.000000 32.000000 32.000000
32.000000 32.000000 32.000000 32.000000 32.000000 32.000000 32.000000 32.000000
32.000000 32.000000 32.000000 32.000000 32.000000 32.000000 32.000000 32.000000
32.000000 32.000000 32.000000 32.000000 32.000000 32.000000 32.000000 32.000000
32.000000 32.000000 32.000000 32.000000 32.000000 32.000000 32.000000 32.000000
32.000000 32.000000 32.000000 32.000000 32.000000 32.000000 32.000000 32.000000
32.000000 32.000000 32.000000 32.000000 32.000000 32.000000 32.000000 32.000000
32.000000 32.000000 32.000000 32.000000 32.000000 32.000000 32.000000 32.000000
32.000000 32.000000 32.000000 32.000000 32.000000 32.000000 32.000000 32.000000
32.000000 32.000000 32.000000 32.000000 32.000000 32.000000 32.000000 32.000000
32.000000 32.000000 32.000000 32.000000 32.000000 32.000000 32.000000 32.000000
32.000000 32.000000 32.000000 32.000000 32.000000 32.000000 32.000000 32.000000
32.000000 32.000000 32.000000 32.000000 32.000000 32.000000 32.000000 32.000000
32.000000 32.000000 32.000000 32.000000 32.000000 32.000000 32.000000 32.000000
32.000000 32.000000 32.000000 32.000000 32.000000 32.000000 32.000000 32.000000
32.000000 32.000000 32.000000 32.000000 32.000000
32.377778 32.365488 32.353218 32.340990 32.328823 32.316737 32.304752 32.292888
32.281163 32.269594 32.258199 32.246994 32.235995 32.225216 32.214670 32.204371
32.194330 32.184557 32.175061 32.165850 32.156932 32.148313 32.139996 32.131986
32.124285 32.116896 32.109816 32.103049 32.096590 32.090439 32.084590 32.079043
32.073790 32.068829 32.064150 32.059751 32.055620 32.051755 32.048144 32.044783
32.041659 32.038769 32.036098 32.033644 32.031392 32.029339 32.027469 32.025782
32.024260 32.022903 32.021694 32.020633 32.019704 32.018906 32.018224 32.017658
32.017192 32.016827 32.016547 32.016355 32.016234 32.016187 32.016199 32.016272
32.016391 32.016561 32.016765 32.017008 32.017275 32.017571 32.017882 32.018211
32.018546 32.018891 32.019234 32.019578 32.019913 32.020242 32.020555 32.020857
32.021136 32.021398 32.021634 32.021847 32.022031 32.022188 32.022313 32.022409
32.022472 32.022502 32.022500 32.022465 32.022398 32.022298 32.022167 32.022005
32.021815 32.021596 32.021353 32.021084 32.020796 32.020485 32.020162 32.019821
32.019473 32.019114 32.018756 32.018393 32.018038 32.017686 32.017352 32.017029
32.016732 32.016456 32.016216 32.016007 32.015845 32.015724 32.015661 32.015651
32.015710 32.015836 32.016044 32.016330 32.016712 32.017188 32.017772 32.018465
32.019282 32.020223 32.021304 32.022526 32.023903 32.025438 32.027145 32.029028
32.031100 32.033365 32.035838 32.038521 32.041428 32.044564 32.047941 32.051564
32.055444 32.059584 32.063997 32.068686 32.073659 32.078921 32.084479 32.090335
32.096495 32.102962 32.109737 32.116823 32.124219 32.131926 32.139942 32.148263
32.156888 32.165810 32.175025 32.184524 32.194301 32.204345 32.214647 32.225195
32.235976 32.246978 32.258185 32.269582 32.281152 32.292879 32.304745 32.316731
32.328818 32.340986 32.353216 32.365486 32.377778
32.755556 32.730975 32.706436 32.681980 32.657646 32.633475 32.609506 32.585778
32.562327 32.539189 32.516399 32.493990 32.471992 32.450434 32.429344 32.408746
32.388664 32.369118 32.350127 32.331706 32.313872 32.296633 32.280001 32.263981
32.248582 32.233802 32.219647 32.206112 32.193197 32.180894 32.169202 32.158108
32.147607 32.137683 32.128331 32.119532 32.111278 32.103548 32.096333 32.089610
32.083371 32.077590 32.072259 32.067350 32.062856 32.058749 32.055022 32.051646
32.048616 32.045901 32.043498 32.041376 32.039533 32.037937 32.036589 32.035456
32.034542 32.033812 32.033271 32.032886 32.032663 32.032570 32.032612 32.032759
32.033018 32.033356 32.033785 32.034271 32.034825 32.035417 32.036057 32.036716
32.037404 32.038095 32.038797 32.039486 32.040172 32.040831 32.041471 32.042074
32.042646 32.043169 32.043651 32.044077 32.044453 32.044767 32.045023 32.045215
32.045343 32.045404 32.045400 32.045330 32.045193 32.044992 32.044726 32.044401
32.044014 32.043575 32.043080 32.042541 32.041952 32.041331 32.040669 32.039988
32.039276 32.038558 32.037824 32.037098 32.036370 32.035667 32.034978 32.034332
32.033719 32.033167 32.032667 32.032249 32.031904 32.031662 32.031516 32.031497
32.031597 32.031849 32.032245 32.032819 32.033565 32.034517 32.035669 32.037056
32.038674 32.040557 32.042704 32.045148 32.047889 32.050959 32.054362 32.058127
32.062261 32.066792 32.071727 32.077094 32.082901 32.089173 32.095920 32.103165
32.110918 32.119200 32.128020 32.137397 32.147339 32.157863 32.168975 32.180687
32.193005 32.205938 32.219486 32.233657 32.248448 32.263861 32.279890 32.296534
32.313781 32.331626 32.350053 32.369053 32.388605 32.408694 32.429297 32.450393
32.471955 32.493958 32.516371 32.539165 32.562306 32.585760 32.609491 32.633463
32.657636 32.681973 32.706432 32.730973 32.755556
33.133333 33.096463 33.059655 33.022971 32.986470 32.950214 32.914261 32.878669
32.843494 32.808788 32.774604 32.740991 32.707994 32.675658 32.644024 32.613129
32.583006 32.553689 32.525204 32.497576 32.470824 32.444969 32.420022 32.395998
32.372899 32.350735 32.329503 32.309207 32.289835 32.271389 32.253852 32.237219
32.221469 32.206595 32.192569 32.179382 32.167004 32.155422 32.144603 32.134535
32.125180 32.116526 32.108533 32.101190 32.094453 32.088316 32.082730 32.077692
32.073152 32.069107 32.065509 32.062355 32.059597 32.057236 32.055221 32.053557
32.052192 32.051133 32.050330 32.049791 32.049466 32.049365 32.049438 32.049698
32.050095 32.050644 32.051296 32.052066 32.052907 32.053835 32.054804 32.055831
32.056873 32.057945 32.059007 32.060075 32.061111 32.062130 32.063099 32.064029
32.064893 32.065702 32.066430 32.067088 32.067655 32.068140 32.068527 32.068822
32.069016 32.069111 32.069104 32.068996 32.068789 32.068480 32.068078 32.067578
32.066993 32.066316 32.065567 32.064736 32.063847 32.062888 32.061888 32.060835
32.059760 32.058648 32.057538 32.056412 32.055311 32.054218 32.053176 32.052168
32.051238 32.050370 32.049610 32.048942 32.048415 32.048013 32.047784 32.047716
32.047858 32.048197 32.048784 32.049608 32.050720 32.052112 32.053834 32.055881
32.058303 32.061097 32.064312 32.067949 32.072055 32.076635 32.081735 32.087360
32.093557 32.100333 32.107732 32.115764 32.124471 32.133863 32.143981 32.154835
32.166461 32.178872 32.192100 32.206156 32.221067 32.236844 32.253510 32.271071
32.289546 32.308939 32.329261 32.350511 32.372697 32.395812 32.419856 32.444817
32.470688 32.497451 32.525093 32.553589 32.582917 32.613048 32.643953 32.675595
32.707938 32.740941 32.774561 32.808751 32.843462 32.878642 32.914239 32.950196
32.986456 33.022960 33.059648 33.096460 33.133333
33.511111 33.461952 33.412875 33.363963 33.315297 33.266956 33.219020 33.171565
33.124665 33.078392 33.032814 32.987997 32.944004 32.900891 32.858715 32.817522
32.777363 32.738275 32.700298 32.663462 32.627799 32.593328 32.560072 32.528041
32.497251 32.467702 32.439403 32.412344 32.386528 32.361937 32.338568 32.316395
32.295412 32.275584 32.256902 32.239326 32.222844 32.207409 32.193009 32.179594
32.167149 32.155620 32.144995 32.135216 32.126271 32.118100 32.110693 32.103989
32.097981 32.092603 32.087854 32.083667 32.080043 32.076913 32.074283 32.072085
32.070325 32.068936 32.067927 32.067232 32.066863 32.066753 32.066918 32.067290
32.067888 32.068645 32.069583 32.070635 32.071824 32.073087 32.074446 32.075840
32.077292 32.078746 32.080222 32.081668 32.083104 32.084484 32.085824 32.087083
32.088277 32.089371 32.090377 32.091266 32.092050 32.092705 32.093239 32.093638
32.093905 32.094034 32.094025 32.093879 32.093594 32.093176 32.092622 32.091946
32.091140 32.090225 32.089192 32.088068 32.086840 32.085543 32.084161 32.082736
32.081247 32.079743 32.078203 32.076679 32.075147 32.073665 32.072209 32.070839
32.069531 32.068348 32.067266 32.066351 32.065580 32.065018 32.064646 32.064531
32.064654 32.065083 32.065803 32.066880 32.068302 32.070138 32.072378 32.075088
32.078264 32.081972 32.086210 32.091043 32.096474 32.102566 32.109325 32.116813
32.125039 32.134062 32.143895 32.154595 32.166175 32.178689 32.192154 32.206618
32.222098 32.238640 32.256258 32.274993 32.294859 32.315890 32.338097 32.361508
32.386130 32.411983 32.439069 32.467401 32.496974 32.527792 32.559843 32.593123
32.627612 32.663295 32.700146 32.738140 32.777240 32.817414 32.858617 32.900806
32.943928 32.987931 33.032756 33.078341 33.124621 33.171528 33.218989 33.266931
33.315277 33.363948 33.412865 33.461947 33.511111
33.888889 33.827441 33.766096 33.704957 33.644125 33.583701 33.523782 33.464465
33.405842 33.348002 33.291032 33.235014 33.180024 33.126137 33.073418 33.021932
32.971735 32.922881 32.875413 32.829376 32.784800 32.741720 32.700154 32.660127
32.621645 32.584722 32.549353 32.515546 32.483283 32.452564 32.423361 32.395668
32.369448 32.344691 32.321350 32.299411 32.278822 32.259564 32.241580 32.224852
32.209314 32.194949 32.181689 32.169517 32.158359 32.148203 32.138972 32.130656
32.123175 32.116524 32.110620 32.105463 32.100968 32.097138 32.093889 32.091229
32.089070 32.087426 32.086210 32.085438 32.085023 32.084985 32.085239 32.085806
32.086603 32.087653 32.088874 32.090293 32.091829 32.093508 32.095255 32.097096
32.098958 32.100868 32.102757 32.104652 32.106488 32.108291 32.110003 32.111647
32.113172 32.114597 32.115881 32.117040 32.118039 32.118892 32.119574 32.120093
32.120435 32.120602 32.120592 32.120402 32.120038 32.119496 32.118789 32.117910
32.116881 32.115692 32.114373 32.112910 32.111343 32.109652 32.107888 32.106027
32.104126 32.102160 32.100190 32.098191 32.096230 32.094279 32.092411 32.090597
32.088913 32.087330 32.085929 32.084681 32.083668 32.082864 32.082352 32.082108
32.082215 32.082655 32.083510 32.084764 32.086501 32.088708 32.091468 32.094774
32.098709 32.103267 32.108532 32.114503 32.121262 32.128813 32.137235 32.146537
32.156795 32.168023 32.180293 32.193621 32.208078 32.223681 32.240495 32.258540
32.277876 32.298522 32.320533 32.343925 32.368748 32.395014 32.422764 32.452009
32.482779 32.515079 32.548931 32.584332 32.621293 32.659804 32.699865 32.741455
32.784563 32.829160 32.875221 32.922706 32.971580 33.021793 33.073295 33.126026
33.179928 33.234928 33.290958 33.347937 33.405786 33.464418 33.523743 33.583669
33.644100 33.704938 33.766084 33.827435 33.888889
34.266667 34.192931 34.119319 34.045954 33.972957 33.900450 33.828550 33.757371
33.687026 33.617621 33.549261 33.482041 33.416058 33.351396 33.288140 33.226361
33.166132 33.107511 33.050559 32.995319 32.941840 32.890150 32.840286 32.792260
32.746099 32.701800 32.659379 32.618821 32.580130 32.543280 32.508266 32.475050
32.443621 32.413930 32.385962 32.359656 32.334995 32.311911 32.290384 32.270338
32.251754 32.234549 32.218705 32.204136 32.190824 32.178679 32.167687 32.157754
32.148872 32.140942 32.133961 32.127828 32.122546 32.118012 32.114233 32.111106
32.108643 32.106740 32.105415 32.104562 32.104203 32.104235 32.104682 32.105442
32.106544 32.107884 32.109496 32.111279 32.113267 32.115362 32.117599 32.119886
32.122256 32.124622 32.127017 32.129360 32.131681 32.133907 32.136067 32.138095
32.140016 32.141774 32.143390 32.144818 32.146075 32.147126 32.147984 32.148623
32.149053 32.149260 32.149247 32.149014 32.148557 32.147890 32.147002 32.145920
32.144628 32.143162 32.141505 32.139702 32.137730 32.135646 32.133424 32.131128
32.128729 32.126300 32.123809 32.121336 32.118847 32.116428 32.114045 32.111788
32.109623 32.107643 32.105816 32.104238 32.102877 32.101833 32.101074 32.100705
32.100695 32.101148 32.102041 32.103475 32.105432 32.108015 32.111208 32.115114
32.119723 32.125137 32.131352 32.138466 32.146482 32.155496 32.165517 32.176638
32.188870 32.202306 32.216961 32.232923 32.250210 32.268904 32.289028 32.310657
32.333814 32.358568 32.384940 32.412993 32.442745 32.474250 32.507521 32.542601
32.579501 32.618250 32.658851 32.701324 32.745660 32.791866 32.839923 32.889826
32.941544 32.995055 33.050318 33.107297 33.165938 33.226190 33.287986 33.351261
33.415938 33.481937 33.549168 33.617542 33.686957 33.757313 33.828501 33.900411
33.972926 34.045931 34.119304 34.192923 34.266667
34.644444 34.558422 34.472543 34.386953 34.301793 34.217204 34.133323 34.050285
33.968219 33.887251 33.807500 33.729084 33.652107 33.576676 33.502881 33.430815
33.360553 33.292174 33.225736 33.161305 33.098920 33.038633 32.980468 32.924459
32.870616 32.818961 32.769484 32.722197 32.677075 32.634120 32.593291 32.554582
32.517940 32.483351 32.450751 32.420119 32.391383 32.364519 32.339443 32.316134
32.294498 32.274513 32.256081 32.239181 32.223709 32.209650 32.196892 32.185425
32.175135 32.166017 32.157953 32.150943 32.144868 32.139734 32.135420 32.131939
32.129167 32.127123 32.125684 32.124873 32.124566 32.124794 32.125432 32.126514
32.127917 32.129679 32.131679 32.133956 32.136394 32.139032 32.141759 32.144614
32.147492 32.150430 32.153330 32.156230 32.159036 32.161785 32.164392 32.166891
32.169209 32.171372 32.173320 32.175077 32.176592 32.177884 32.178917 32.179704
32.180221 32.180476 32.180461 32.180176 32.179627 32.178808 32.177740 32.176411
32.174855 32.173055 32.171059 32.168842 32.166466 32.163901 32.161221 32.158391
32.155494 32.152494 32.149481 32.146418 32.143402 32.140393 32.137496 32.134669
32.132024 32.129517 32.127266 32.125227 32.123521 32.122107 32.121107 32.120485
32.120361 32.120706 32.121640 32.123138 32.125320 32.128166 32.131797 32.136197
32.141487 32.147658 32.154828 32.162995 32.172274 32.182669 32.194294 32.207159
32.221371 32.236948 32.253994 32.272528 32.292651 32.314384 32.337822 32.362988
32.389970 32.418792 32.449530 32.482208 32.516894 32.553606 32.592401 32.633292
32.676323 32.721500 32.768854 32.818379 32.870092 32.923978 32.980035 33.038237
33.098566 33.160982 33.225449 33.291913 33.360322 33.430606 33.502697 33.576511
33.651963 33.728956 33.807390 33.887154 33.968136 34.050215 34.133265 34.217156
34.301756 34.386925 34.472525 34.558413 34.644444
35.022222 34.923914 34.825770 34.727956 34.630634 34.533964 34.438105 34.343208
34.249423 34.156892 34.065756 33.976142 33.888177 33.801975 33.717649 33.635295
33.555009 33.476870 33.400958 33.327332 33.256057 33.187170 33.120720 33.056726
32.995222 32.936205 32.879697 32.825677 32.774153 32.725089 32.678479 32.634273
32.592457 32.552964 32.515777 32.480815 32.448055 32.417405 32.388841 32.362261
32.337641 32.314870 32.293925 32.274689 32.257143 32.241161 32.226732 32.213724
32.202130 32.191816 32.182781 32.174888 32.168141 32.162402 32.157682 32.153840
32.150896 32.148706 32.147296 32.146523 32.146418 32.146837 32.147819 32.149219
32.151079 32.153259 32.155802 32.158571 32.161613 32.164793 32.168159 32.171582
32.175110 32.178621 32.182162 32.185618 32.189033 32.192304 32.195470 32.198441
32.201251 32.203820 32.206180 32.208265 32.210099 32.211633 32.212883 32.213816
32.214443 32.214746 32.214728 32.214390 32.213728 32.212757 32.211468 32.209892
32.208012 32.205877 32.203462 32.200832 32.197955 32.194909 32.191659 32.188295
32.184777 32.181205 32.177537 32.173883 32.170197 32.166598 32.163037 32.159642
32.156363 32.153332 32.150501 32.148005 32.145798 32.144019 32.142623 32.141753
32.141367 32.141608 32.142440 32.144006 32.146276 32.149391 32.153330 32.158232
32.164082 32.171017 32.179030 32.188256 32.198694 32.210478 32.223613 32.238227
32.254335 32.272060 32.291420 32.312533 32.335423 32.360202 32.386894 32.415604
32.446359 32.479253 32.514312 32.551620 32.591200 32.633124 32.677410 32.724115
32.773250 32.824859 32.878940 32.935522 32.994592 33.056160 33.120201 33.186705
33.255632 33.326953 33.400614 33.476564 33.554732 33.635050 33.717429 33.801782
33.888004 33.975992 34.065623 34.156779 34.249324 34.343125 34.438035 34.533908
34.630589 34.727923 34.825748 34.923903 35.022222
35.400000 35.289407 35.178999 35.068963 34.959480 34.850732 34.742894 34.636141
34.530638 34.426550 34.324027 34.223221 34.124267 34.027303 33.932444 33.839811
33.749500 33.661612 33.576225 33.493419 33.413249 33.335780 33.261043 33.189085
33.119915 33.053564 32.990020 32.929299 32.871368 32.816230 32.763834 32.714173
32.667177 32.622831 32.581051 32.541815 32.505024 32.470654 32.438595 32.408820
32.381208 32.355734 32.332269 32.310791 32.291162 32.273364 32.257254 32.242821
32.229915 32.218533 32.208519 32.199878 32.192453 32.186254 32.181122 32.177076
32.173953 32.171781 32.170395 32.169830 32.169921 32.170710 32.172030 32.173930
32.176244 32.179024 32.182108 32.185551 32.189195 32.193094 32.197098 32.201262
32.205440 32.209687 32.213867 32.218032 32.222056 32.225988 32.229714 32.233278
32.236581 32.239660 32.242432 32.244928 32.247081 32.248916 32.250383 32.251500
32.252236 32.252599 32.252580 32.252177 32.251401 32.250242 32.248730 32.246848
32.244643 32.242091 32.239257 32.236110 32.232731 32.229083 32.225263 32.221227
32.217086 32.212791 32.208467 32.204059 32.199703 32.195342 32.191119 32.186977
32.183067 32.179329 32.175921 32.172785 32.170081 32.167755 32.165969 32.164673
32.164030 32.163995 32.164732 32.166201 32.168566 32.171795 32.176049 32.181305
32.187721 32.195283 32.204147 32.214306 32.225913 32.238968 32.253622 32.269882
32.287893 32.307671 32.329353 32.352961 32.378627 32.406375 32.436329 32.468517
32.503051 32.539961 32.579347 32.621235 32.665716 32.712810 32.762591 32.815075
32.870318 32.928327 32.989141 33.052753 33.119185 33.188413 33.260440 33.335228
33.412756 33.492969 33.575824 33.661249 33.749178 33.839520 33.932188 34.027073
34.124067 34.223042 34.323873 34.426414 34.530524 34.636043 34.742813 34.850665
34.959428 35.068924 35.178974 35.289394 35.400000
35.777778 35.654901 35.532232 35.409974 35.288332 35.167506 35.047694 34.929086
34.811869 34.696222 34.582318 34.470320 34.360386 34.252657 34.147276 34.044362
33.944038 33.846400 33.751551 33.659562 33.570518 33.484463 33.401461 33.321535
33.244727 33.171037 33.100490 33.033061 32.968762 32.907545 32.849408 32.794285
32.742163 32.692956 32.646645 32.603127 32.562377 32.524279 32.488805 32.455826
32.425314 32.397129 32.371247 32.347518 32.325921 32.306297 32.288635 32.272767
32.258689 32.246228 32.235388 32.225991 32.218051 32.211385 32.206015 32.201757
32.198641 32.196480 32.195313 32.194951 32.195441 32.196593 32.198460 32.200854
32.203832 32.207209 32.211046 32.215159 32.219614 32.224232 32.229077 32.233980
32.239003 32.243986 32.248990 32.253864 32.258666 32.263259 32.267696 32.271854
32.275780 32.279369 32.282661 32.285569 32.288124 32.290261 32.292002 32.293302
32.294175 32.294599 32.294578 32.294110 32.293192 32.291845 32.290055 32.287865
32.285252 32.282282 32.278922 32.275256 32.271246 32.266994 32.262453 32.257744
32.252812 32.247794 32.242630 32.237469 32.232248 32.227125 32.222037 32.217150
32.212399 32.207958 32.203762 32.199990 32.196578 32.193710 32.191325 32.189609
32.188506 32.188202 32.188648 32.190028 32.192301 32.195652 32.200045 32.205664
32.212484 32.220682 32.230244 32.241346 32.253980 32.268317 32.284361 32.302277
32.322075 32.343916 32.367817 32.393929 32.422278 32.453006 32.486140 32.521814
32.560057 32.600989 32.644640 32.691117 32.740445 32.792715 32.847946 32.906214
32.967528 33.031942 33.099456 33.170103 33.243868 33.320762 33.400752 33.483828
33.569937 33.659045 33.751080 33.845982 33.943659 34.044028 34.146975 34.252393
34.360150 34.470115 34.582137 34.696066 34.811734 34.928972 35.047599 35.167429
35.288271 35.409929 35.532202 35.654887 35.777778
36.155556 36.020398 35.885468 35.750991 35.617192 35.484291 35.352505 35.222045
35.093115 34.965915 34.840630 34.717447 34.596530 34.478048 34.362142 34.248960
34.138620 34.031248 33.926934 33.825783 33.727859 33.633243 33.541972 33.454106
33.369656 33.288660 33.211104 33.137009 33.066334 32.999087 32.935202 32.874674
32.817417 32.763415 32.712564 32.664840 32.620122 32.578382 32.539484 32.503399
32.469978 32.439193 32.410884 32.385028 32.361452 32.340142 32.320916 32.303767
32.288505 32.275134 32.263457 32.253486 32.245020 32.238082 32.232465 32.228202
32.225085 32.223153 32.222197 32.222266 32.223146 32.224898 32.227306 32.230435
32.234073 32.238289 32.242874 32.247901 32.253163 32.258736 32.264422 32.270293
32.276161 32.282097 32.287925 32.293710 32.299291 32.304730 32.309878 32.314792
32.319344 32.323580 32.327393 32.330822 32.333780 32.336299 32.338314 32.339846
32.340858 32.341358 32.341334 32.340786 32.339725 32.338141 32.336072 32.333495
32.330474 32.326976 32.323087 32.318767 32.314124 32.309106 32.303843 32.298277
32.292554 32.286610 32.280606 32.274473 32.268388 32.262275 32.256322 32.250453
32.244864 32.239478 32.234497 32.229846 32.225731 32.222081 32.219104 32.216732
32.215176 32.214375 32.214537 32.215610 32.217801 32.221065 32.225608 32.231395
32.238627 32.247280 32.257552 32.269428 32.283101 32.298566 32.316012 32.335444
32.357041 32.380819 32.406949 32.435454 32.466497 32.500105 32.536430 32.575502
32.617463 32.662343 32.710268 32.761267 32.815449 32.872839 32.933528 32.997532
33.064922 33.135702 33.209921 33.287569 33.368672 33.453203 33.541161 33.632501
33.727196 33.825178 33.926396 34.030759 34.138188 34.248570 34.361798 34.477740
34.596261 34.717208 34.840423 34.965733 35.092961 35.221913 35.352395 35.484201
35.617122 35.750939 35.885434 36.020381 36.155556
36.533333 36.385896 36.238708 36.092013 35.946059 35.801085 35.657329 35.515018
35.374380 35.235627 35.098970 34.964600 34.832712 34.703473 34.577056 34.453603
34.333264 34.216153 34.102396 33.992077 33.885299 33.782116 33.682605 33.586794
33.494737 33.406429 33.321907 33.241138 33.164139 33.090853 33.021279 32.955337
32.893015 32.834209 32.778898 32.726958 32.678363 32.632971 32.590754 32.551552
32.515340 32.481944 32.451342 32.423346 32.397942 32.374933 32.354309 32.335866
32.319604 32.305309 32.292994 32.282436 32.273660 32.266437 32.260803 32.256525
32.253648 32.251936 32.251445 32.251936 32.253473 32.255816 32.259036 32.262894
32.267467 32.272518 32.278128 32.284064 32.290408 32.296934 32.303725 32.310564
32.317532 32.324422 32.331313 32.338011 32.344591 32.350877 32.356934 32.362606
32.367953 32.372838 32.377313 32.381265 32.384734 32.387636 32.389998 32.391764
32.392950 32.393528 32.393502 32.392872 32.391632 32.389810 32.387388 32.384423
32.380885 32.376858 32.372301 32.367324 32.361877 32.356092 32.349910 32.343485
32.336750 32.329878 32.322795 32.315691 32.308486 32.301383 32.294300 32.287451
32.280751 32.274423 32.268381 32.262856 32.257763 32.253336 32.249495 32.246476
32.244203 32.242912 32.242537 32.243312 32.245178 32.248367 32.252830 32.258796
32.266227 32.275347 32.286129 32.298792 32.313321 32.329928 32.348609 32.369570
32.392816 32.418543 32.446769 32.477679 32.511295 32.547795 32.587205 32.629687
32.675274 32.724111 32.776230 32.831760 32.890729 32.953247 33.019335 33.089082
33.162498 33.239650 33.320532 33.405188 33.493594 33.585766 33.681663 33.781271
33.884528 33.991390 34.101770 34.215598 34.332762 34.453160 34.576657 34.703123
34.832399 34.964328 35.098729 35.235421 35.374201 35.514868 35.657202 35.800983
35.945978 36.091954 36.238668 36.385877 36.533333
36.911111 36.751397 36.591951 36.433043 36.274935 36.117892 35.962166 35.808011
35.655664 35.505366 35.357334 35.211789 35.068926 34.928945 34.792014 34.658307
34.527965 34.401136 34.277930 34.158470 34.042831 33.931112 33.823356 33.719637
33.619965 33.524390 33.432894 33.345504 33.262171 33.182908 33.107636 33.036352
32.968954 32.905427 32.845646 32.789586 32.737103 32.688170 32.642621 32.600429
32.561413 32.525549 32.492639 32.462666 32.435418 32.410888 32.388852 32.369312
32.352035 32.337033 32.324064 32.313154 32.304053 32.296797 32.291132 32.287106
32.284458 32.283248 32.283212 32.284419 32.286602 32.289840 32.293865 32.298762
32.304264 32.310462 32.317092 32.324248 32.331671 32.339456 32.347352 32.355454
32.363522 32.371646 32.379601 32.387473 32.395055 32.402423 32.409392 32.416031
32.422176 32.427887 32.433025 32.437641 32.441624 32.445011 32.447723 32.449784
32.451146 32.451821 32.451793 32.451061 32.449641 32.447519 32.444743 32.441287
32.437230 32.432532 32.427305 32.421495 32.415241 32.408480 32.401376 32.393856
32.386107 32.378047 32.369883 32.361527 32.353202 32.344815 32.336603 32.328468
32.320659 32.313078 32.305980 32.299268 32.293203 32.287690 32.282992 32.279021
32.276040 32.273968 32.273066 32.273261 32.274813 32.277660 32.282056 32.287950
32.295594 32.304947 32.316254 32.329489 32.344889 32.362439 32.382371 32.404681
32.429591 32.457107 32.487442 32.520613 32.556818 32.596082 32.638590 32.684371
32.733595 32.786293 32.842617 32.902595 32.966360 33.033934 33.105430 33.180860
33.260310 33.343782 33.431335 33.522954 33.618670 33.718448 33.822289 33.930135
34.041958 34.157674 34.277222 34.400494 34.527396 34.657794 34.791562 34.928540
35.068572 35.211474 35.357062 35.505127 35.655462 35.807837 35.962023 36.117774
36.274844 36.432975 36.591907 36.751374 36.911111
37.288889 37.116900 36.945201 36.774079 36.603823 36.434710 36.267021 36.101020
35.936974 35.775129 35.615733 35.459010 35.305187 35.154460 35.007031 34.863067
34.722742 34.586191 34.453562 34.324954 34.200487 34.080225 33.964262 33.852626
33.745385 33.642535 33.544118 33.450097 33.360496 33.275244 33.194349 33.117713
33.045327 32.977066 32.912915 32.852724 32.796469 32.743980 32.695233 32.650036
32.608368 32.570019 32.534972 32.503004 32.474105 32.448037 32.424801 32.404146
32.386086 32.370359 32.356991 32.345711 32.336559 32.329255 32.323851 32.320062
32.317952 32.317231 32.317973 32.319885 32.323051 32.327175 32.332350 32.338278
32.345061 32.352401 32.360403 32.368776 32.377625 32.386667 32.396007 32.405372
32.414864 32.424223 32.433549 32.442597 32.451460 32.459916 32.468047 32.475656
32.482816 32.489356 32.495338 32.500620 32.505254 32.509129 32.512283 32.514641
32.516226 32.517000 32.516970 32.516135 32.514487 32.512063 32.508841 32.504891
32.500178 32.494807 32.488729 32.482083 32.474805 32.467065 32.458788 32.450170
32.441125 32.431875 32.422325 32.412716 32.402947 32.393275 32.383594 32.374176
32.364911 32.356080 32.347574 32.339681 32.332292 32.325700 32.319801 32.314888
32.310863 32.308018 32.306265 32.305894 32.306824 32.309342 32.313379 32.319217
32.326800 32.336403 32.347982 32.361805 32.377844 32.396356 32.417327 32.441004
32.467385 32.496708 32.528981 32.564429 32.603070 32.645114 32.690586 32.739680
32.792426 32.848997 32.909424 32.973862 33.042336 33.114978 33.191807 33.272929
33.358351 33.448151 33.542322 33.640912 33.743893 33.851283 33.963031 34.079122
34.199480 34.324056 34.452746 34.585467 34.722086 34.862487 35.006510 35.154003
35.304779 35.458656 35.615420 35.774860 35.936740 36.100824 36.266856 36.434577
36.603717 36.774002 36.945149 37.116874 37.288889
37.666667 37.482406 37.298455 37.115125 36.932720 36.751544 36.571891 36.394053
36.218306 36.044925 35.874163 35.706276 35.541489 35.380033 35.222103 35.067901
34.917590 34.771342 34.629285 34.491560 34.358258 34.229492 34.105313 33.985807
33.870989 33.760917 33.655570 33.554984 33.459102 33.367941 33.281410 33.199511
33.122123 33.049235 32.980700 32.916498 32.856456 32.800552 32.748589 32.700547
32.656208 32.615555 32.578354 32.544593 32.514023 32.486642 32.462186 32.440665
32.421803 32.405623 32.391836 32.380482 32.371259 32.364223 32.359064 32.355849
32.354262 32.354384 32.355893 32.358879 32.363017 32.368409 32.374725 32.382076
32.390131 32.399007 32.408377 32.418359 32.428633 32.439317 32.450101 32.461101
32.472019 32.482968 32.493666 32.504220 32.514369 32.524210 32.533509 32.542351
32.550531 32.558122 32.564951 32.571079 32.576366 32.580860 32.584458 32.587192
32.589001 32.589900 32.589867 32.588903 32.587027 32.584223 32.580550 32.575977
32.570604 32.564383 32.557451 32.549745 32.541439 32.532456 32.523001 32.512986
32.502643 32.491873 32.480934 32.469718 32.458503 32.447173 32.436025 32.424937
32.414218 32.403745 32.393836 32.384367 32.375662 32.367601 32.360509 32.354271
32.349212 32.345226 32.342635 32.341342 32.341665 32.343518 32.347214 32.352679
32.360220 32.369777 32.381647 32.395788 32.412484 32.431709 32.453738 32.478557
32.506430 32.537356 32.571586 32.609131 32.650226 32.694891 32.743344 32.795611
32.851893 32.912216 32.976762 33.045554 33.118750 33.196370 33.278543 33.365281
33.456684 33.552749 33.653546 33.759053 33.869308 33.984265 34.103927 34.228225
34.357125 34.490529 34.628366 34.770510 34.916852 35.067236 35.221517 35.379508
35.541030 35.705868 35.873811 36.044616 36.218043 36.393828 36.571706 36.751392
36.932601 37.115036 37.298397 37.482377 37.666667
38.044444 37.847914 37.651716 37.456178 37.261631 37.068393 36.876784 36.687108
36.499669 36.314750 36.132636 35.953581 35.777847 35.605659 35.437248 35.272805
35.112532 34.956582 34.805127 34.658280 34.516180 34.378902 34.246554 34.119170
33.996829 33.879526 33.767316 33.660153 33.558069 33.460985 33.368911 33.281735
33.199454 33.121923 33.049130 32.980900 32.917217 32.857878 32.802868 32.751960
32.705140 32.662162 32.623019 32.587444 32.555440 32.526725 32.501312 32.478905
32.459529 32.442875 32.428985 32.417535 32.408584 32.401796 32.397245 32.394587
32.393909 32.394859 32.397538 32.401587 32.407117 32.413766 32.421655 32.430420
32.440187 32.450593 32.461770 32.473358 32.485491 32.497817 32.510469 32.523106
32.535857 32.548398 32.560852 32.572916 32.584702 32.595935 32.606715 32.616797