# vtk DataFile Version 3.0
Steady-state temperature (Jacobi)
ASCII
DATASET STRUCTURED_POINTS
DIMENSIONS 181 181 1
ORIGIN 0.0 0.0 0.0
SPACING 0.05 0.05 1.0
POINT_DATA 32761
SCALARS Temperature float 1
LOOKUP_TABLE default
32.000000 32.000000 32.000000 32.000000 32.000000 32.000000 32.000000 32.000000
32.000000 32.000000 32.000000 32.000000 32.000000 32.000000 32.000000 32.000000
32.000000 32.000000 32.000000 32.000000 32.000000 32.000000 32.000000 32.000000
32.000000 32.000000 32.000000 32.000000 32.000000 32.000000 32.000000 32.000000
32.000000 32.000000 32.000000 32.000000 32.000000 32.000000 32.000000 32.000000
32.000000 32.000000 32.000000 32.000000 32.000000 32.000000 32.000000 32.000000
32.000000 32.000000 32.000000 32.000000 32.000000 32.000000 32.000000 32.000000
32.000000 32.000000 32.000000 32.000000 32.000000 32.000000 32.000000 32.000000
32.000000 32.000000 32.000000 32.000000 32.000000 32.000000 32.000000 32.000000
32.000000 32.000000 32.000000 32.000000 32.000000 32.000000 32.000000 32.000000
32.000000 32.000000 32.000000 32.000000 32.000000 32.000000 32.000000 32.000000
32.000000 32.000000 32.000000 32.000000 32.000000 32.000000 32.000000 32.000000
32.000000 32.000000 32.000000 32.000000 32.000000 32.000000 32.000000 32.000000
32.000000 32.000000 32.000000 32.000000 32.000000 32.000000 32.000000 32.000000
32.000000 32.000000 32.000000 32.000000 32.000000 32.000000 32.000000 32.000000
32.000000 32.000000 32.000000 32.000000 32.000000 32.000000 32.000000 32.000000
32.000000 32.000000 32.000000 32.000000 32.000000 32.000000 32.000000 32.000000
32.000000 32.000000 32.000000 32.000000 32.000000 32.000000 32.000000 32.000000
32.000000 32.000000 32.000000 32.000000 32.000000 32.000000 32.000000 32.000000
32.000000 32.000000 32.000000 32.000000 32.000000 32.000000 32.000000 32.000000
32.000000 32.000000 32.000000 32.000000 32.000000 32.000000 32.000000 32.000000
32.000000 32.000000 32.000000 32.000000 32.000000 32.000000 32.000000 32.000000
32.000000 32.000000 32.000000 32.000000 32.000000
32.377778 32.379633 32.381496 32.383374 32.385274 32.387203 32.389168 32.391178
32.393237 32.395355 32.397536 32.399789 32.402119 32.404533 32.407035 32.409634
32.412332 32.415138 32.418053 32.421086 32.424237 32.427514 32.430918 32.434454
32.438124 32.441932 32.445878 32.449967 32.454196 32.458571 32.463088 32.467752
32.472557 32.477507 32.482597 32.487829 32.493197 32.498701 32.504335 32.510099
32.515984 32.521990 32.528107 32.534334 32.540660 32.547083 32.553590 32.560180
32.566839 32.573562 32.580337 32.587159 32.594012 32.600892 32.607783 32.614678
32.621562 32.628429 32.635260 32.642050 32.648781 32.655445 32.662026 32.668515
32.674896 32.681159 32.687288 32.693275 32.699103 32.704764 32.710242 32.715529
32.720609 32.725476 32.730113 32.734516 32.738669 32.742567 32.746197 32.749555
32.752629 32.755414 32.757902 32.760088 32.761966 32.763533 32.764783 32.765714
32.766323 32.766610 32.766572 32.766211 32.765527 32.764521 32.763197 32.761556
32.759604 32.757344 32.754782 32.751923 32.748776 32.745345 32.741642 32.737672
32.733447 32.728973 32.724264 32.719328 32.714178 32.708822 32.703275 32.697547
32.691652 32.685599 32.679404 32.673077 32.666634 32.660083 32.653442 32.646718
32.639930 32.633084 32.626198 32.619279 32.612344 32.605399 32.598462 32.591537
32.584642 32.577780 32.570968 32.564209 32.557518 32.550899 32.544366 32.537920
32.531574 32.525331 32.519202 32.513187 32.507297 32.501533 32.495903 32.490406
32.485051 32.479836 32.474769 32.469845 32.465072 32.460446 32.455972 32.451646
32.447471 32.443442 32.439563 32.435827 32.432237 32.428786 32.425475 32.422296
32.419251 32.416331 32.413536 32.410857 32.408294 32.405837 32.403484 32.401228
32.399063 32.396982 32.394981 32.393051 32.391188 32.389382 32.387628 32.385918
32.384245 32.382602 32.380982 32.379376 32.377778
32.755556 32.759272 32.763003 32.766763 32.770568 32.774431 32.778368 32.782391
32.786517 32.790757 32.795127 32.799637 32.804303 32.809135 32.814148 32.819349
32.824755 32.830370 32.836210 32.842280 32.848593 32.855151 32.861969 32.869047
32.876398 32.884019 32.891923 32.900105 32.908578 32.917333 32.926381 32.935714
32.945339 32.955246 32.965441 32.975912 32.986663 32.997679 33.008963 33.020499
33.032286 33.044306 33.056559 33.069022 33.081692 33.094547 33.107582 33.120771
33.134109 33.147566 33.161137 33.174790 33.188518 33.202288 33.216091 33.229893
33.243683 33.257427 33.271112 33.284703 33.298186 33.311527 33.324709 33.337699
33.350480 33.363019 33.375297 33.387282 33.398958 33.410291 33.421265 33.431848
33.442026 33.451768 33.461059 33.469872 33.478193 33.485997 33.493270 33.499992
33.506150 33.511726 33.516711 33.521088 33.524851 33.527987 33.530491 33.532356
33.533577 33.534150 33.534076 33.533353 33.531983 33.529969 33.527316 33.524031
33.520120 33.515594 33.510462 33.504739 33.498434 33.491566 33.484147 33.476199
33.467735 33.458779 33.449346 33.439463 33.429146 33.418423 33.407313 33.395844
33.384035 33.371918 33.359510 33.346844 33.333937 33.320823 33.307520 33.294061
33.280463 33.266760 33.252966 33.239117 33.225225 33.211325 33.197429 33.183568
33.169756 33.156022 33.142377 33.128850 33.115448 33.102201 33.089114 33.076213
33.063503 33.051008 33.038731 33.026694 33.014896 33.003360 32.992082 32.981082
32.970356 32.959920 32.949769 32.939916 32.930356 32.921098 32.912136 32.903478
32.895115 32.887053 32.879282 32.871807 32.864614 32.857708 32.851074 32.844714
32.838613 32.832769 32.827169 32.821808 32.816672 32.811755 32.807041 32.802524
32.798187 32.794022 32.790013 32.786149 32.782415 32.778799 32.775285 32.771861
32.768510 32.765219 32.761973 32.758757 32.755556
33.133333 33.138921 33.144530 33.150184 33.155903 33.161712 33.167629 33.173679
33.179880 33.186255 33.192822 33.199604 33.206615 33.213881 33.221412 33.229234
33.237354 33.245798 33.254571 33.263697 33.273180 33.283041 33.293282 33.303924
33.314964 33.326423 33.338294 33.350596 33.363321 33.376484 33.390074 33.404105
33.418561 33.433455 33.448768 33.464509 33.480657 33.497218 33.514168 33.531510
33.549215 33.567286 33.585690 33.604426 33.623460 33.642785 33.662366 33.682195
33.702230 33.722463 33.742849 33.763377 33.784000 33.804704 33.825441 33.846193
33.866911 33.887575 33.908136 33.928572 33.948831 33.968890 33.988697 34.008230
34.027435 34.046288 34.064739 34.082761 34.100306 34.117348 34.133839 34.149755
34.165050 34.179700 34.193663 34.206917 34.219422 34.231158 34.242089 34.252198
34.261454 34.269840 34.277331 34.283915 34.289570 34.294287 34.298051 34.300855
34.302691 34.303554 34.303442 34.302355 34.300296 34.297268 34.293281 34.288341
34.282463 34.275657 34.267944 34.259337 34.249861 34.239534 34.228384 34.216432
34.203711 34.190243 34.176067 34.161206 34.145701 34.129578 34.112881 34.095637
34.077891 34.059671 34.041025 34.021980 34.002586 33.982869 33.962880 33.942644
33.922212 33.901609 33.880885 33.860062 33.839191 33.818292 33.797415 33.776577
33.755827 33.735179 33.714680 33.694343 33.674211 33.654296 33.634637 33.615242
33.596150 33.577366 33.558925 33.540828 33.523108 33.505765 33.488826 33.472289
33.456178 33.440489 33.425242 33.410430 33.396070 33.382152 33.368692 33.355675
33.343114 33.330993 33.319321 33.308081 33.297278 33.286894 33.276930 33.267366
33.258201 33.249414 33.241001 33.232940 33.225224 33.217829 33.210747 33.203953
33.197436 33.191172 33.185147 33.179336 33.173723 33.168285 33.163003 33.157852
33.152814 33.147865 33.142984 33.138147 33.133333
33.511111 33.518585 33.526088 33.533650 33.541301 33.549069 33.556986 33.565075
33.573370 33.581894 33.590679 33.599744 33.609124 33.618835 33.628910 33.639363
33.650226 33.661509 33.673244 33.685439 33.698122 33.711299 33.724996 33.739214
33.753980 33.769289 33.785166 33.801602 33.818619 33.836205 33.854379 33.873124
33.892457 33.912355 33.932833 33.953864 33.975458 33.997585 34.020251 34.043421
34.067099 34.091244 34.115855 34.140890 34.166343 34.192167 34.218353 34.244850
34.271644 34.298682 34.325947 34.353379 34.380962 34.408631 34.436366 34.464101
34.491812 34.519432 34.546934 34.574248 34.601346 34.628160 34.654655 34.680765
34.706456 34.731660 34.756342 34.780435 34.803907 34.826691 34.848753 34.870032
34.890495 34.910083 34.928765 34.946486 34.963217 34.978909 34.993535 35.007052
35.019437 35.030651 35.040675 35.049479 35.057046 35.063354 35.068391 35.072141
35.074598 35.075752 35.075603 35.074150 35.071395 35.067347 35.062012 35.055407
35.047543 35.038443 35.028124 35.016615 35.003938 34.990129 34.975212 34.959230
34.942212 34.924205 34.905240 34.885370 34.864628 34.843073 34.820736 34.797682
34.773943 34.749586 34.724644 34.699184 34.673242 34.646886 34.620148 34.593099
34.565771 34.538232 34.510513 34.482682 34.454768 34.426837 34.398915 34.371066
34.343314 34.315722 34.288307 34.261130 34.234207 34.207595 34.181304 34.155389
34.129858 34.104759 34.080098 34.055919 34.032223 34.009050 33.986398 33.964304
33.942760 33.921798 33.901409 33.881620 33.862416 33.843822 33.825821 33.808430
33.791631 33.775437 33.759827 33.744810 33.730361 33.716486 33.703158 33.690379
33.678119 33.666378 33.655123 33.644350 33.634027 33.624144 33.614668 33.605587
33.596867 33.588493 33.580430 33.572660 33.565150 33.557877 33.550808 33.543919
33.537177 33.530556 33.524024 33.517553 33.511111
33.888889 33.898269 33.907686 33.917178 33.926780 33.936531 33.946464 33.956619
33.967025 33.977724 33.988743 34.000123 34.011887 34.024076 34.036709 34.049828
34.063448 34.077609 34.092322 34.107625 34.123525 34.140059 34.157229 34.175070
34.193578 34.212787 34.232687 34.253308 34.274638 34.296702 34.319481 34.342999
34.367230 34.392194 34.417861 34.444245 34.471312 34.499072 34.527483 34.556551
34.586231 34.616523 34.647375 34.678784 34.710692 34.743092 34.775920 34.809165
34.842758 34.876683 34.910867 34.945289 34.979873 35.014593 35.049370 35.084174
35.118924 35.153585 35.188074 35.222353 35.256338 35.289989 35.323221 35.355991
35.388215 35.419849 35.450809 35.481052 35.510495 35.539095 35.566772 35.593484
35.619156 35.643746 35.667184 35.689432 35.710424 35.730125 35.748476 35.765447
35.780987 35.795067 35.807645 35.818699 35.828195 35.836116 35.842437 35.847146
35.850229 35.851680 35.851493 35.849669 35.846214 35.841132 35.834439 35.826147
35.816280 35.804856 35.791908 35.777460 35.761555 35.744219 35.725504 35.705442
35.684090 35.661486 35.637693 35.612751 35.586731 35.559673 35.531654 35.502716
35.472939 35.442366 35.411081 35.379127 35.346590 35.313511 35.279978 35.246031
35.211758 35.177199 35.142438 35.107514 35.072510 35.037461 35.002450 34.967507
34.932711 34.898089 34.863717 34.829619 34.795866 34.762476 34.729518 34.697004
34.664999 34.633510 34.602596 34.572261 34.542559 34.513487 34.485095 34.457375
34.430372 34.404074 34.378518 34.353690 34.329621 34.306293 34.283730 34.261910
34.240854 34.220536 34.200969 34.182126 34.164014 34.146603 34.129896 34.113858
34.098490 34.083753 34.069643 34.056120 34.043176 34.030769 34.018886 34.007485
33.996548 33.986033 33.975918 33.966162 33.956738 33.947604 33.938733 33.930081
33.921619 33.913304 33.905103 33.896977 33.888889
34.266667 34.277979 34.289337 34.300782 34.312363 34.324119 34.336099 34.348340
34.360891 34.373787 34.387076 34.400789 34.414975 34.429661 34.444895 34.460700
34.477122 34.494179 34.511917 34.530348 34.549516 34.569428 34.590126 34.611610
34.633921 34.657050 34.681037 34.705868 34.731576 34.758143 34.785598 34.813915
34.843119 34.873178 34.904112 34.935882 34.968504 35.001930 35.036172 35.071176
35.106947 35.143426 35.180611 35.218436 35.256895 35.295916 35.335486 35.375526
35.416019 35.456881 35.498088 35.539552 35.581243 35.623069 35.664995 35.706925
35.748820 35.790580 35.832163 35.873467 35.914445 35.954994 35.995066 36.034557
36.073416 36.111540 36.148877 36.185327 36.220837 36.255308 36.288690 36.320889
36.351853 36.381495 36.409767 36.436587 36.461909 36.485660 36.507799 36.528260
36.547006 36.563982 36.579158 36.592486 36.603943 36.613494 36.621121 36.626800
36.630520 36.632271 36.632047 36.629849 36.625681 36.619555 36.611482 36.601485
36.589583 36.575811 36.560193 36.542776 36.523590 36.502691 36.480117 36.455932
36.430179 36.402931 36.374234 36.344169 36.312786 36.280173 36.246381 36.211504
36.175593 36.138748 36.101021 36.062514 36.023278 35.983417 35.942984 35.902080
35.860757 35.819117 35.777208 35.735132 35.692932 35.650709 35.608502 35.566408
35.524463 35.482759 35.441328 35.400257 35.359573 35.319358 35.279633 35.240476
35.201900 35.163979 35.126720 35.090191 35.054392 35.019385 34.985166 34.951789
34.919243 34.887578 34.856778 34.826883 34.797873 34.769784 34.742589 34.716316
34.690936 34.666470 34.642885 34.620194 34.598361 34.577393 34.557251 34.537936
34.519406 34.501656 34.484641 34.468352 34.452741 34.437794 34.423460 34.409722
34.396529 34.383856 34.371653 34.359892 34.348521 34.337508 34.326802 34.316369
34.306156 34.296127 34.286231 34.276426 34.266667
34.644444 34.657720 34.671046 34.684479 34.698066 34.711863 34.725916 34.740282
34.755002 34.770135 34.785718 34.801809 34.818441 34.835671 34.853529 34.872070
34.891317 34.911326 34.932113 34.953732 34.976192 34.999546 35.023796 35.048992
35.075129 35.102254 35.130354 35.159471 35.189588 35.220739 35.252901 35.286104
35.320315 35.355561 35.391799 35.429050 35.467265 35.506459 35.546574 35.587619
35.629527 35.672302 35.715869 35.760224 35.805286 35.851045 35.897411 35.944368
35.991820 36.039742 36.088034 36.136665 36.185529 36.234587 36.283730 36.332914
36.382024 36.431012 36.479761 36.528216 36.576259 36.623834 36.670818 36.717154
36.762720 36.807455 36.851240 36.894013 36.935659 36.976113 37.015266 37.053055
37.089375 37.124167 37.157330 37.188811 37.218517 37.246397 37.272369 37.296388
37.318382 37.338311 37.356116 37.371764 37.385208 37.396421 37.405371 37.412040
37.416406 37.418463 37.418202 37.415623 37.410735 37.403545 37.394075 37.382341
37.368379 37.352213 37.333892 37.313448 37.290941 37.266412 37.239931 37.211546
37.181337 37.149357 37.115697 37.080413 37.043606 37.005333 36.965701 36.924773
36.882661 36.839426 36.795187 36.750004 36.703999 36.657232 36.609826 36.561839
36.513393 36.464545 36.415417 36.366060 36.316595 36.267069 36.217599 36.168228
36.119068 36.070158 36.021604 35.973439 35.925763 35.878604 35.832056 35.786139
35.740941 35.696474 35.652822 35.609988 35.568048 35.527001 35.486913 35.447776
35.409651 35.372522 35.336441 35.301387 35.267405 35.234467 35.202610 35.171802
35.142070 35.113379 35.085748 35.059136 35.033557 35.008964 34.985364 34.962708
34.940994 34.920171 34.900231 34.881118 34.862820 34.845279 34.828476 34.812352
34.796881 34.782005 34.767693 34.753884 34.740544 34.727613 34.715051 34.702799
34.690812 34.679034 34.667417 34.655904 34.644444
35.022222 35.037495 35.052828 35.068280 35.083913 35.099781 35.115950 35.132469
35.149405 35.166803 35.184730 35.203226 35.222357 35.242159 35.262698 35.284003
35.306137 35.329124 35.353027 35.377860 35.403684 35.430508 35.458387 35.487324
35.517371 35.548520 35.580821 35.614258 35.648875 35.684647 35.721613 35.759741
35.799062 35.839535 35.881185 35.923963 35.967886 36.012895 36.059003 36.106139
36.154310 36.203436 36.253514 36.304459 36.356259 36.408818 36.462120 36.516060
36.570613 36.625667 36.681189 36.737062 36.793245 36.849614 36.906122 36.962640
37.019116 37.075414 37.131478 37.187170 37.242427 37.297111 37.351155 37.404420
37.456837 37.508267 37.558639 37.607819 37.655733 37.702250 37.747300 37.790756
37.832549 37.872561 37.910726 37.946932 37.981119 38.013187 38.043080 38.070708
38.096023 38.118949 38.139444 38.157446 38.172921 38.185823 38.196126 38.203799
38.208828 38.211195 38.210897 38.207933 38.202309 38.194040 38.183142 38.169647
38.153579 38.134985 38.113901 38.090387 38.064486 38.036274 38.005801 37.973155
37.938394 37.901616 37.862885 37.822311 37.779960 37.735952 37.690355 37.643297
37.594849 37.545143 37.494252 37.442311 37.389392 37.335634 37.281108 37.225952
37.170235 37.114096 37.057597 37.000878 36.943997 36.887088 36.830206 36.773480
36.716959 36.660768 36.604946 36.549615 36.494808 36.440637 36.387128 36.334387
36.282432 36.231362 36.181185 36.131993 36.083787 36.036648 35.990572 35.945629
35.901809 35.859173 35.817702 35.777450 35.738390 35.700568 35.663950 35.628572
35.594395 35.561447 35.529683 35.499122 35.469714 35.441469 35.414333 35.388309
35.363340 35.339418 35.316484 35.294525 35.273476 35.253318 35.233986 35.215452
35.197649 35.180546 35.164073 35.148193 35.132837 35.117962 35.103499 35.089401
35.075601 35.062045 35.048669 35.035415 35.022222
35.400000 35.417311 35.434688 35.452203 35.469917 35.487904 35.506223 35.524947
35.544130 35.563848 35.584149 35.605109 35.626770 35.649207 35.672457 35.696593
35.721645 35.747684 35.774732 35.802859 35.832078 35.862455 35.893997 35.926764
35.960754 35.996025 36.032563 36.070422 36.109578 36.150079 36.191892 36.235058
36.279535 36.325356 36.372468 36.420898 36.470583 36.521541 36.573698 36.627066
36.681559 36.737181 36.793838 36.851522 36.910130 36.969646 37.029958 37.091041
37.152774 37.215123 37.277959 37.341241 37.404831 37.468681 37.532645 37.596669
37.660603 37.724384 37.787859 37.850959 37.913527 37.975491 38.036692 38.097053
38.156418 38.214706 38.271761 38.327502 38.381779 38.434508 38.485545 38.534808
38.582160 38.627523 38.670766 38.711818 38.750559 38.786920 38.820797 38.852127
38.880818 38.906817 38.930046 38.950463 38.968004 38.982638 38.994318 39.003022
39.008724 39.011412 39.011076 39.007718 39.001346 38.991972 38.979623 38.964322
38.946114 38.925032 38.901140 38.874479 38.845130 38.813143 38.778614 38.741603
38.702216 38.660523 38.616642 38.570647 38.522668 38.472783 38.421132 38.367794
38.312918 38.256584 38.198945 38.140083 38.080154 38.019238 37.957495 37.895001
37.831915 37.768312 37.704349 37.640095 37.575705 37.511242 37.446857 37.382607
37.318637 37.254997 37.191825 37.129164 37.067145 37.005802 36.945258 36.885538
36.826757 36.768931 36.712166 36.656470 36.601937 36.548567 36.496446 36.445564
36.395997 36.347726 36.300818 36.255245 36.211065 36.168242 36.126823 36.086767
36.048108 36.010800 35.974869 35.940260 35.906991 35.875003 35.844302 35.814825
35.786570 35.759471 35.733516 35.708635 35.684808 35.661964 35.640076 35.619068
35.598906 35.579516 35.560855 35.542848 35.525447 35.508576 35.492183 35.476192
35.460545 35.445168 35.429998 35.414964 35.400000
35.777778 35.797170 35.816639 35.836258 35.856104 35.876248 35.896771 35.917736
35.939226 35.961298 35.984038 36.007495 36.031755 36.056860 36.082895 36.109896
36.137944 36.167068 36.197347 36.228802 36.261507 36.295474 36.330775 36.367411
36.405449 36.444880 36.485767 36.528089 36.571902 36.617177 36.663962 36.712216
36.761980 36.813202 36.865915 36.920055 36.975647 37.032615 37.090975 37.150640
37.211617 37.273807 37.337206 37.401707 37.467295 37.533850 37.601349 37.669663
37.738758 37.808495 37.878832 37.949619 38.020806 38.092236 38.163850 38.235484
38.307070 38.378441 38.449520 38.520137 38.590209 38.659563 38.728112 38.795680
38.862179 38.927433 38.991352 39.053763 39.114574 39.173620 39.230807 39.285977
39.339041 39.389847 39.438312 39.484294 39.527715 39.568448 39.606421 39.641520
39.673682 39.702812 39.728854 39.751730 39.771397 39.787795 39.800892 39.810648
39.817043 39.820057 39.819685 39.815926 39.808786 39.798286 39.784447 39.767307
39.746900 39.723285 39.696506 39.666643 39.633749 39.597921 39.559223 39.517769
39.473630 39.426935 39.377763 39.326254 39.272494 39.216634 39.158764 39.099043
39.037565 38.974496 38.909929 38.844037 38.776911 38.708728 38.639577 38.569634
38.498988 38.427812 38.356190 38.284295 38.212201 38.140080 38.068000 37.996125
37.924516 37.853331 37.782623 37.712540 37.643127 37.574526 37.506769 37.439988
37.374209 37.309552 37.246032 37.183761 37.122741 37.063075 37.004756 36.947873
36.892412 36.838451 36.785966 36.735022 36.685588 36.637718 36.591372 36.546593
36.503334 36.461626 36.421415 36.382723 36.345487 36.309721 36.275355 36.242393
36.210761 36.180452 36.151389 36.123556 36.096872 36.071311 36.046792 36.023279
36.000690 35.978981 35.958069 35.937903 35.918398 35.899498 35.881120 35.863200
35.845656 35.828420 35.811411 35.794557 35.777778
36.155556 36.177080 36.198687 36.220463 36.242485 36.264844 36.287612 36.310880
36.334716 36.359211 36.384427 36.410455 36.437349 36.465202 36.494058 36.524008
36.555089 36.587389 36.620936 36.655816 36.692046 36.729707 36.768807 36.809423
36.851551 36.895262 36.940542 36.987454 37.035973 37.086157 37.137965 37.191449
37.246557 37.303330 37.361704 37.421712 37.483277 37.546421 37.611055 37.677191
37.744727 37.813666 37.883892 37.955396 38.028052 38.101840 38.176621 38.252366
38.328923 38.406253 38.484195 38.562697 38.641591 38.720815 38.800192 38.879651
38.959009 39.038185 39.116991 39.195340 39.273039 39.349996 39.426017 39.501002
39.574758 39.647184 39.718088 39.787366 39.854832 39.920381 39.983834 40.045088
40.103971 40.160386 40.214172 40.265236 40.313429 40.358668 40.400817 40.439802
40.475506 40.507863 40.536775 40.562188 40.584024 40.602242 40.616786 40.627626
40.634730 40.638083 40.637674 40.633502 40.625580 40.613921 40.598561 40.579528
40.556877 40.530652 40.500931 40.467767 40.431258 40.391473 40.348525 40.302494
40.253512 40.201664 40.147100 40.089913 40.030264 39.968251 39.904048 39.837756
39.769557 39.699556 39.627939 39.554812 39.480366 39.404705 39.328023 39.250419
39.172088 39.093124 39.013722 38.933969 38.854055 38.774061 38.694171 38.614458
38.535101 38.456161 38.377811 38.300102 38.223196 38.147135 38.072072 37.998037
37.925171 37.853495 37.783139 37.714111 37.646529 37.580392 37.515805 37.452756
37.391337 37.331527 37.273405 37.216939 37.162197 37.109137 37.057814 37.008178
36.960271 36.914036 36.869503 36.826606 36.785365 36.745707 36.707640 36.671086
36.636041 36.602424 36.570220 36.539342 36.509767 36.481405 36.454222 36.428126
36.403074 36.378975 36.355775 36.333382 36.311738 36.290747 36.270346 36.250440
36.230959 36.211811 36.192919 36.174195 36.155556
36.533333 36.557042 36.580843 36.604825 36.629085 36.653705 36.678784 36.704399
36.730652 36.757611 36.785379 36.814018 36.843630 36.874269 36.906035 36.938974
36.973184 37.008700 37.045619 37.083965 37.123830 37.165227 37.208245 37.252885
37.299230 37.347268 37.397075 37.448629 37.501996 37.557143 37.614127 37.672899
37.733511 37.795899 37.860104 37.926049 37.993764 38.063159 38.134253 38.206942
38.281232 38.357007 38.434261 38.512864 38.592798 38.673919 38.756199 38.839481
38.923724 39.008760 39.094535 39.180872 39.267706 39.354848 39.442225 39.529638
39.617004 39.704118 39.790889 39.877106 39.962669 40.047367 40.131093 40.213633
40.294875 40.374610 40.452721 40.529000 40.603333 40.675517 40.745437 40.812899
40.877793 40.939933 40.999215 41.055467 41.108591 41.158431 41.204897 41.247852
41.287216 41.322871 41.354750 41.382756 41.406836 41.426915 41.442955 41.454906
41.462743 41.466443 41.465996 41.461404 41.452674 41.439832 41.422902 41.401933
41.376967 41.348075 41.315313 41.278778 41.238537 41.194709 41.147373 41.096668
41.042684 40.985577 40.925447 40.862465 40.796737 40.728447 40.657709 40.584716
40.509583 40.432515 40.353627 40.273128 40.191134 40.107857 40.023410 39.938006
39.851755 39.764868 39.677447 39.589704 39.501731 39.413735 39.325800 39.238125
39.150786 39.063974 38.977753 38.892304 38.807682 38.724056 38.641469 38.560080
38.479917 38.401129 38.323733 38.247863 38.173524 38.100836 38.029794 37.960505
37.892950 37.827223 37.763295 37.701244 37.641033 37.582725 37.526273 37.471727
37.419029 37.368218 37.319227 37.272081 37.226707 37.183116 37.141228 37.101043
37.062474 37.025511 36.990061 36.956103 36.923540 36.892339 36.862402 36.833687
36.806091 36.779562 36.754000 36.729342 36.705487 36.682365 36.659875 36.637941
36.616463 36.595357 36.574527 36.553884 36.533333
36.911111 36.937063 36.963113 36.989365 37.015912 37.042861 37.070300 37.098336
37.127051 37.156554 37.186919 37.218255 37.250628 37.284146 37.318865 37.354893
37.392274 37.431114 37.471447 37.513375 37.556919 37.602178 37.649160 37.697957
37.748567 37.801074 37.855462 37.911808 37.970081 38.030350 38.092570 38.156801
38.222984 38.291166 38.361273 38.433344 38.507288 38.583133 38.660772 38.740220
38.821357 38.904184 38.988566 39.074491 39.161810 39.250497 39.340389 39.431449
39.523498 39.616486 39.710223 39.804645 39.899553 39.994870 40.090385 40.186011
40.281530 40.376843 40.471726 40.566071 40.659650 40.752346 40.843929 40.934277
41.023158 41.110448 41.195917 41.279437 41.360783 41.439829 41.516358 41.590244
41.661280 41.729346 41.794248 41.855871 41.914038 41.968644 42.019527 42.066594
42.109705 42.148777 42.183693 42.214387 42.240764 42.262772 42.280345 42.293447
42.302036 42.306096 42.305613 42.300586 42.291031 42.276964 42.258427 42.235456
42.208118 42.176466 42.140594 42.100569 42.056509 42.008496 41.956672 41.901130
41.842032 41.779483 41.713662 41.644685 41.572745 41.497963 41.420549 41.340626
41.258414 41.174041 41.087731 40.999613 40.909919 40.818772 40.726408 40.632948
40.538625 40.443555 40.347968 40.251974 40.155799 40.059541 39.963422 39.867529
39.772075 39.677138 39.582920 39.489485 39.397026 39.305595 39.215372 39.126394
39.038830 38.952705 38.868171 38.785242 38.704054 38.624609 38.547028 38.471300
38.397532 38.325698 38.255893 38.188079 38.122333 38.058608 37.996966 37.937349
37.879806 37.824268 37.770768 37.719231 37.669676 37.622019 37.576266 37.532325
37.490191 37.449765 37.411029 37.373881 37.338291 37.304152 37.271422 37.239993
37.209813 37.180770 37.152803 37.125801 37.099693 37.074366 37.049744 37.025714
37.002191 36.979066 36.956247 36.933628 36.911111
37.288889 37.317144 37.345508 37.374086 37.402992 37.432323 37.462197 37.492704
37.523964 37.556059 37.589109 37.623189 37.658418 37.694861 37.732637 37.771799
37.812463 37.854673 37.898540 37.944097 37.991450 38.040618 38.091702 38.144708
38.199732 38.256762 38.315888 38.377084 38.440430 38.505885 38.573520 38.643279
38.715219 38.789270 38.865479 38.943757 39.024139 39.106521 39.190924 39.277228
39.365439 39.455422 39.547170 39.640530 39.735480 39.831853 39.929614 40.028578
40.128697 40.229772 40.331741 40.434392 40.537649 40.641289 40.745223 40.849217
40.953171 41.056843 41.160121 41.262759 41.364634 41.465495 41.565213 41.663537
41.760330 41.855341 41.948432 42.039354 42.127970 42.214036 42.297415 42.377875
42.455282 42.529415 42.600146 42.667272 42.730672 42.790161 42.845628 42.896910
42.943909 42.986486 43.024556 43.058006 43.086769 43.110757 43.129922 43.144205
43.153577 43.158008 43.157488 43.152017 43.141605 43.126283 43.106080 43.081056
43.051260 43.016778 42.977679 42.934077 42.886056 42.833756 42.777276 42.716780
42.652378 42.584256 42.512536 42.437422 42.359043 42.277619 42.193286 42.106277
42.016730 41.924888 41.830892 41.734990 41.637322 41.538140 41.437580 41.335898
41.233221 41.129804 41.025769 40.921364 40.816704 40.712031 40.607447 40.503188
40.399343 40.296139 40.193653 40.092098 39.991539 39.892176 39.794059 39.697376
39.602162 39.508589 39.416678 39.326587 39.238322 39.152024 39.067685 38.985431
38.905240 38.827221 38.751340 38.677688 38.606220 38.537010 38.470001 38.405252
38.342695 38.282373 38.224207 38.168226 38.114342 38.062570 38.012812 37.965070
37.919240 37.875308 37.833166 37.792786 37.754056 37.716936 37.681310 37.647125
37.614264 37.582664 37.552205 37.522814 37.494371 37.466794 37.439962 37.413787
37.388150 37.362954 37.338082 37.313431 37.288889
37.666667 37.697292 37.728032 37.759009 37.790331 37.822122 37.854485 37.887548
37.921404 37.956182 37.991967 38.028889 38.067024 38.106498 38.147378 38.189789
38.233784 38.279487 38.326939 38.376257 38.427469 38.480689 38.535929 38.593297
38.652790 38.714507 38.778431 38.844651 38.913135 38.983962 39.057082 39.132564
39.210339 39.290466 39.372860 39.457563 39.544474 39.633623 39.724889 39.818288
39.913682 40.011072 40.110302 40.211357 40.314065 40.418394 40.524157 40.631306
40.739636 40.849087 40.959438 41.070612 41.182376 41.294640 41.407157 41.519823
41.632383 41.744719 41.856569 41.967804 42.078155 42.187485 42.295520 42.402117
42.507003 42.610028 42.710920 42.809529 42.905588 42.998945 43.089343 43.176633
43.260569 43.341007 43.417718 43.490563 43.559332 43.623897 43.684070 43.739735
43.790728 43.836949 43.878259 43.914577 43.945791 43.971839 43.992642 44.008155
44.018332 44.023150 44.022593 44.016661 44.005372 43.988746 43.966833 43.939675
43.907354 43.869932 43.827520 43.780201 43.728115 43.671359 43.610102 43.544458
43.474616 43.400705 43.322936 43.241447 43.156469 43.068148 42.976728 42.882362
42.785305 42.685713 42.583851 42.479873 42.374050 42.266533 42.157598 42.047388
41.936180 41.824110 41.711450 41.598330 41.485014 41.371621 41.258408 41.145482
41.033090 40.921324 40.810420 40.700457 40.591656 40.484081 40.377939 40.273278
40.170290 40.069008 39.969606 39.872101 39.776653 39.683261 39.592067 39.503057
39.416354 39.331930 39.249891 39.170194 39.092928 39.018037 38.945592 38.875526
38.807891 38.742610 38.679720 38.619132 38.560866 38.504824 38.451013 38.399325
38.349752 38.302180 38.256585 38.212849 38.170935 38.130719 38.092152 38.055105
38.019519 37.985263 37.952265 37.920394 37.889568 37.859656 37.830567 37.802170
37.774365 37.747026 37.720044 37.693295 37.666667
38.044444 38.077508 38.110697 38.144135 38.177952 38.212263 38.247202 38.282875
38.319421 38.356935 38.395556 38.435372 38.476520 38.519077 38.563178 38.608888
38.656342 38.705589 38.756760 38.809892 38.865110 38.922437 38.981990 39.043777
39.107907 39.174372 39.243274 39.314585 39.388398 39.464668 39.543476 39.624759
39.708584 39.794873 39.883677 39.974899 40.068578 40.164596 40.262976 40.363581
40.466420 40.571336 40.678322 40.787202 40.897951 41.010376 41.124435 41.239917
41.356764 41.474747 41.593792 41.713656 41.834247 41.955308 42.076733 42.198253
42.319747 42.440936 42.561686 42.681712 42.800867 42.918860 43.035538 43.150606
43.263904 43.375138 43.484142 43.590629 43.694431 43.795266 43.892968 43.987266
44.078000 44.164911 44.247846 44.326567 44.400927 44.470710 44.535784 44.595957