# vtk DataFile Version 3.0
Steady-state temperature (Jacobi)
ASCII
DATASET STRUCTURED_POINTS
DIMENSIONS 181 181 1
ORIGIN 0.0 0.0 0.0
SPACING 0.05 0.05 1.0
POINT_DATA 32761
SCALARS Temperature float 1
LOOKUP_TABLE default
32.000000 32.000000 32.000000 32.000000 32.000000 32.000000 32.000000 32.000000
32.000000 32.000000 32.000000 32.000000 32.000000 32.000000 32.000000 32.000000
32.000000 32.000000 32.000000 32.000000 32.000000 32.000000 32.000000 32.000000
32.000000 32.000000 32.000000 32.000000 32.000000 32.000000 32.000000 32.000000
32.000000 32.000000 32.000000 32.000000 32.000000 32.000000 32.000000 32.000000
32.000000 32.000000 32.000000 32.000000 32.000000 32.000000 32.000000 32.000000
32.000000 32.000000 32.000000 32.000000 32.000000 32.000000 32.000000 32.000000
32.000000 32.000000 32.000000 32.000000 32.000000 32.000000 32.000000 32.000000
32.000000 32.000000 32.000000 32.000000 32.000000 32.000000 32.000000 32.000000
32.000000 32.000000 32.000000 32.000000 32.000000 32.000000 32.000000 32.000000
32.000000 32.000000 32.000000 32.000000 32.000000 32.000000 32.000000 32.000000
32.000000 32.000000 32.000000 32.000000 32.000000 32.000000 32.000000 32.000000
32.000000 32.000000 32.000000 32.000000 32.000000 32.000000 32.000000 32.000000
32.000000 32.000000 32.000000 32.000000 32.000000 32.000000 32.000000 32.000000
32.000000 32.000000 32.000000 32.000000 32.000000 32.000000 32.000000 32.000000
32.000000 32.000000 32.000000 32.000000 32.000000 32.000000 32.000000 32.000000
32.000000 32.000000 32.000000 32.000000 32.000000 32.000000 32.000000 32.000000
32.000000 32.000000 32.000000 32.000000 32.000000 32.000000 32.000000 32.000000
32.000000 32.000000 32.000000 32.000000 32.000000 32.000000 32.000000 32.000000
32.000000 32.000000 32.000000 32.000000 32.000000 32.000000 32.000000 32.000000
32.000000 32.000000 32.000000 32.000000 32.000000 32.000000 32.000000 32.000000
32.000000 32.000000 32.000000 32.000000 32.000000 32.000000 32.000000 32.000000
32.000000 32.000000 32.000000 32.000000 32.000000
32.377778 32.347729 32.317978 32.288813 32.260506 32.233304 32.207422 32.183041
32.160300 32.139301 32.120101 32.102722 32.087146 32.073324 32.061183 32.050622
32.041528 32.033775 32.027232 32.021764 32.017240 32.013535 32.010531 32.008120
32.006204 32.004697 32.003523 32.002618 32.001928 32.001406 32.001016 32.000727
32.000515 32.000362 32.000252 32.000173 32.000118 32.000080 32.000053 32.000035
32.000023 32.000015 32.000010 32.000006 32.000004 32.000002 32.000001 32.000001
32.000001 32.000000 32.000000 32.000000 32.000000 32.000000 32.000000 32.000000
32.000000 32.000000 32.000000 32.000000 32.000000 32.000000 32.000000 32.000000
32.000000 32.000000 32.000000 32.000000 32.000000 32.000000 32.000000 32.000000
32.000000 32.000000 32.000000 32.000000 32.000000 32.000000 32.000000 32.000000
32.000000 32.000000 32.000000 32.000000 32.000000 32.000000 32.000000 32.000000
32.000000 32.000000 32.000000 32.000000 32.000000 32.000000 32.000000 32.000000
32.000000 32.000000 32.000000 32.000000 32.000000 32.000000 32.000000 32.000000
32.000000 32.000000 32.000000 32.000000 32.000000 32.000000 32.000000 32.000000
32.000000 32.000000 32.000000 32.000000 32.000000 32.000000 32.000000 32.000000
32.000000 32.000000 32.000000 32.000000 32.000000 32.000000 32.000000 32.000000
32.000000 32.000000 32.000000 32.000000 32.000001 32.000001 32.000001 32.000002
32.000004 32.000006 32.000010 32.000015 32.000023 32.000035 32.000053 32.000080
32.000118 32.000173 32.000252 32.000362 32.000515 32.000727 32.001016 32.001406
32.001928 32.002618 32.003523 32.004697 32.006204 32.008120 32.010531 32.013535
32.017240 32.021764 32.027232 32.033775 32.041528 32.050622 32.061183 32.073324
32.087146 32.102722 32.120101 32.139301 32.160300 32.183041 32.207422 32.233304
32.260506 32.288813 32.317978 32.347729 32.377778
32.755556 32.695458 32.635956 32.577627 32.521013 32.466608 32.414844 32.366082
32.320601 32.278602 32.240203 32.205443 32.174291 32.146649 32.122365 32.101244
32.083056 32.067551 32.054463 32.043527 32.034480 32.027071 32.021063 32.016240
32.012408 32.009394 32.007046 32.005236 32.003855 32.002812 32.002031 32.001454
32.001031 32.000723 32.000503 32.000346 32.000236 32.000160 32.000107 32.000071
32.000046 32.000030 32.000019 32.000012 32.000008 32.000005 32.000003 32.000002
32.000001 32.000001 32.000000 32.000000 32.000000 32.000000 32.000000 32.000000
32.000000 32.000000 32.000000 32.000000 32.000000 32.000000 32.000000 32.000000
32.000000 32.000000 32.000000 32.000000 32.000000 32.000000 32.000000 32.000000
32.000000 32.000000 32.000000 32.000000 32.000000 32.000000 32.000000 32.000000
32.000000 32.000000 32.000000 32.000000 32.000000 32.000000 32.000000 32.000000
32.000000 32.000000 32.000000 32.000000 32.000000 32.000000 32.000000 32.000000
32.000000 32.000000 32.000000 32.000000 32.000000 32.000000 32.000000 32.000000
32.000000 32.000000 32.000000 32.000000 32.000000 32.000000 32.000000 32.000000
32.000000 32.000000 32.000000 32.000000 32.000000 32.000000 32.000000 32.000000
32.000000 32.000000 32.000000 32.000000 32.000000 32.000000 32.000000 32.000000
32.000000 32.000000 32.000000 32.000001 32.000001 32.000002 32.000003 32.000005
32.000008 32.000012 32.000019 32.000030 32.000046 32.000071 32.000107 32.000160
32.000236 32.000346 32.000503 32.000723 32.001031 32.001454 32.002031 32.002812
32.003855 32.005236 32.007046 32.009394 32.012408 32.016240 32.021063 32.027071
32.034480 32.043527 32.054463 32.067551 32.083056 32.101244 32.122365 32.146649
32.174291 32.205443 32.240203 32.278602 32.320601 32.366082 32.414844 32.466608
32.521013 32.577627 32.635956 32.695458 32.755556
33.133333 33.043188 32.953935 32.866440 32.781519 32.699912 32.622267 32.549122
32.480901 32.417903 32.360304 32.308165 32.261437 32.219973 32.183548 32.151866
32.124584 32.101326 32.081695 32.065291 32.051720 32.040606 32.031594 32.024361
32.018613 32.014091 32.010569 32.007854 32.005783 32.004218 32.003047 32.002181
32.001546 32.001085 32.000755 32.000520 32.000354 32.000239 32.000160 32.000106
32.000070 32.000045 32.000029 32.000018 32.000012 32.000007 32.000004 32.000003
32.000002 32.000001 32.000001 32.000000 32.000000 32.000000 32.000000 32.000000
32.000000 32.000000 32.000000 32.000000 32.000000 32.000000 32.000000 32.000000
32.000000 32.000000 32.000000 32.000000 32.000000 32.000000 32.000000 32.000000
32.000000 32.000000 32.000000 32.000000 32.000000 32.000000 32.000000 32.000000
32.000000 32.000000 32.000000 32.000000 32.000000 32.000000 32.000000 32.000000
32.000000 32.000000 32.000000 32.000000 32.000000 32.000000 32.000000 32.000000
32.000000 32.000000 32.000000 32.000000 32.000000 32.000000 32.000000 32.000000
32.000000 32.000000 32.000000 32.000000 32.000000 32.000000 32.000000 32.000000
32.000000 32.000000 32.000000 32.000000 32.000000 32.000000 32.000000 32.000000
32.000000 32.000000 32.000000 32.000000 32.000000 32.000000 32.000000 32.000000
32.000000 32.000000 32.000001 32.000001 32.000002 32.000003 32.000004 32.000007
32.000012 32.000018 32.000029 32.000045 32.000070 32.000106 32.000160 32.000239
32.000354 32.000520 32.000755 32.001085 32.001546 32.002181 32.003047 32.004218
32.005783 32.007854 32.010569 32.014091 32.018613 32.024361 32.031594 32.040606
32.051720 32.065291 32.081695 32.101326 32.124584 32.151866 32.183548 32.219973
32.261437 32.308165 32.360304 32.417903 32.480901 32.549122 32.622267 32.699912
32.781519 32.866440 32.953935 33.043188 33.133333
33.511111 33.390917 33.271913 33.155254 33.042026 32.933216 32.829689 32.732163
32.641201 32.557203 32.480405 32.410887 32.348582 32.293298 32.244730 32.202488
32.166112 32.135101 32.108926 32.087054 32.068960 32.054141 32.042126 32.032481
32.024817 32.018788 32.014092 32.010473 32.007710 32.005623 32.004063 32.002908
32.002061 32.001447 32.001006 32.000693 32.000473 32.000319 32.000213 32.000141
32.000093 32.000060 32.000039 32.000025 32.000016 32.000010 32.000006 32.000004
32.000002 32.000001 32.000001 32.000000 32.000000 32.000000 32.000000 32.000000
32.000000 32.000000 32.000000 32.000000 32.000000 32.000000 32.000000 32.000000
32.000000 32.000000 32.000000 32.000000 32.000000 32.000000 32.000000 32.000000
32.000000 32.000000 32.000000 32.000000 32.000000 32.000000 32.000000 32.000000
32.000000 32.000000 32.000000 32.000000 32.000000 32.000000 32.000000 32.000000
32.000000 32.000000 32.000000 32.000000 32.000000 32.000000 32.000000 32.000000
32.000000 32.000000 32.000000 32.000000 32.000000 32.000000 32.000000 32.000000
32.000000 32.000000 32.000000 32.000000 32.000000 32.000000 32.000000 32.000000
32.000000 32.000000 32.000000 32.000000 32.000000 32.000000 32.000000 32.000000
32.000000 32.000000 32.000000 32.000000 32.000000 32.000000 32.000000 32.000000
32.000000 32.000000 32.000001 32.000001 32.000002 32.000004 32.000006 32.000010
32.000016 32.000025 32.000039 32.000060 32.000093 32.000141 32.000213 32.000319
32.000473 32.000693 32.001006 32.001447 32.002061 32.002908 32.004063 32.005623
32.007710 32.010473 32.014092 32.018788 32.024817 32.032481 32.042126 32.054141
32.068960 32.087054 32.108926 32.135101 32.166112 32.202488 32.244730 32.293298
32.348582 32.410887 32.480405 32.557203 32.641201 32.732163 32.829689 32.933216
33.042026 33.155254 33.271913 33.390917 33.511111
33.888889 33.738646 33.589891 33.444067 33.302532 33.166520 33.037111 32.915204
32.801502 32.696504 32.600507 32.513608 32.435728 32.366622 32.305913 32.253110
32.207640 32.168876 32.136158 32.108818 32.086200 32.067676 32.052657 32.040601
32.031021 32.023484 32.017615 32.013091 32.009638 32.007029 32.005078 32.003634
32.002576 32.001809 32.001258 32.000866 32.000591 32.000399 32.000267 32.000177
32.000116 32.000075 32.000048 32.000031 32.000019 32.000012 32.000007 32.000005
32.000003 32.000002 32.000001 32.000001 32.000000 32.000000 32.000000 32.000000
32.000000 32.000000 32.000000 32.000000 32.000000 32.000000 32.000000 32.000000
32.000000 32.000000 32.000000 32.000000 32.000000 32.000000 32.000000 32.000000
32.000000 32.000000 32.000000 32.000000 32.000000 32.000000 32.000000 32.000000
32.000000 32.000000 32.000000 32.000000 32.000000 32.000000 32.000000 32.000000
32.000000 32.000000 32.000000 32.000000 32.000000 32.000000 32.000000 32.000000
32.000000 32.000000 32.000000 32.000000 32.000000 32.000000 32.000000 32.000000
32.000000 32.000000 32.000000 32.000000 32.000000 32.000000 32.000000 32.000000
32.000000 32.000000 32.000000 32.000000 32.000000 32.000000 32.000000 32.000000
32.000000 32.000000 32.000000 32.000000 32.000000 32.000000 32.000000 32.000000
32.000000 32.000001 32.000001 32.000002 32.000003 32.000005 32.000007 32.000012
32.000019 32.000031 32.000048 32.000075 32.000116 32.000177 32.000267 32.000399
32.000591 32.000866 32.001258 32.001809 32.002576 32.003634 32.005078 32.007029
32.009638 32.013091 32.017615 32.023484 32.031021 32.040601 32.052657 32.067676
32.086200 32.108818 32.136158 32.168876 32.207640 32.253110 32.305913 32.366622
32.435728 32.513608 32.600507 32.696504 32.801502 32.915204 33.037111 33.166520
33.302532 33.444067 33.589891 33.738646 33.888889
34.266667 34.086375 33.907869 33.732880 33.563038 33.399824 33.244533 33.098245
32.961802 32.835805 32.720608 32.616330 32.522873 32.439947 32.367095 32.303732
32.249169 32.202652 32.163390 32.130582 32.103440 32.081212 32.063188 32.048721
32.037225 32.028181 32.021139 32.015709 32.011565 32.008435 32.006094 32.004361
32.003092 32.002170 32.001509 32.001039 32.000709 32.000479 32.000320 32.000212
32.000139 32.000090 32.000058 32.000037 32.000023 32.000015 32.000009 32.000005
32.000003 32.000002 32.000001 32.000001 32.000000 32.000000 32.000000 32.000000
32.000000 32.000000 32.000000 32.000000 32.000000 32.000000 32.000000 32.000000
32.000000 32.000000 32.000000 32.000000 32.000000 32.000000 32.000000 32.000000
32.000000 32.000000 32.000000 32.000000 32.000000 32.000000 32.000000 32.000000
32.000000 32.000000 32.000000 32.000000 32.000000 32.000000 32.000000 32.000000
32.000000 32.000000 32.000000 32.000000 32.000000 32.000000 32.000000 32.000000
32.000000 32.000000 32.000000 32.000000 32.000000 32.000000 32.000000 32.000000
32.000000 32.000000 32.000000 32.000000 32.000000 32.000000 32.000000 32.000000
32.000000 32.000000 32.000000 32.000000 32.000000 32.000000 32.000000 32.000000
32.000000 32.000000 32.000000 32.000000 32.000000 32.000000 32.000000 32.000000
32.000000 32.000001 32.000001 32.000002 32.000003 32.000005 32.000009 32.000015
32.000023 32.000037 32.000058 32.000090 32.000139 32.000212 32.000320 32.000479
32.000709 32.001039 32.001509 32.002170 32.003092 32.004361 32.006094 32.008435
32.011565 32.015709 32.021139 32.028181 32.037225 32.048721 32.063188 32.081212
32.103440 32.130582 32.163390 32.202652 32.249169 32.303732 32.367095 32.439947
32.522873 32.616330 32.720608 32.835805 32.961802 33.098245 33.244533 33.399824
33.563038 33.732880 33.907869 34.086375 34.266667
34.644444 34.434105 34.225847 34.021694 33.823545 33.633128 33.451955 33.281285
33.122103 32.975106 32.840709 32.719051 32.610019 32.513271 32.428278 32.354354
32.290697 32.236427 32.190621 32.152345 32.120680 32.094747 32.073720 32.056841
32.043429 32.032878 32.024662 32.018327 32.013493 32.009841 32.007110 32.005088
32.003607 32.002532 32.001761 32.001213 32.000827 32.000559 32.000374 32.000247
32.000162 32.000105 32.000068 32.000043 32.000027 32.000017 32.000010 32.000006
32.000004 32.000002 32.000001 32.000001 32.000000 32.000000 32.000000 32.000000
32.000000 32.000000 32.000000 32.000000 32.000000 32.000000 32.000000 32.000000
32.000000 32.000000 32.000000 32.000000 32.000000 32.000000 32.000000 32.000000
32.000000 32.000000 32.000000 32.000000 32.000000 32.000000 32.000000 32.000000
32.000000 32.000000 32.000000 32.000000 32.000000 32.000000 32.000000 32.000000
32.000000 32.000000 32.000000 32.000000 32.000000 32.000000 32.000000 32.000000
32.000000 32.000000 32.000000 32.000000 32.000000 32.000000 32.000000 32.000000
32.000000 32.000000 32.000000 32.000000 32.000000 32.000000 32.000000 32.000000
32.000000 32.000000 32.000000 32.000000 32.000000 32.000000 32.000000 32.000000
32.000000 32.000000 32.000000 32.000000 32.000000 32.000000 32.000000 32.000000
32.000000 32.000001 32.000001 32.000002 32.000004 32.000006 32.000010 32.000017
32.000027 32.000043 32.000068 32.000105 32.000162 32.000247 32.000374 32.000559
32.000827 32.001213 32.001761 32.002532 32.003607 32.005088 32.007110 32.009841
32.013493 32.018327 32.024662 32.032878 32.043429 32.056841 32.073720 32.094747
32.120680 32.152345 32.190621 32.236427 32.290697 32.354354 32.428278 32.513271
32.610019 32.719051 32.840709 32.975106 33.122103 33.281285 33.451955 33.633128
33.823545 34.021694 34.225847 34.434105 34.644444
35.022222 34.781834 34.543826 34.310507 34.084051 33.866432 33.659378 33.464326
33.282403 33.114407 32.960811 32.821773 32.697164 32.586596 32.489460 32.404976
32.332225 32.270202 32.217853 32.174109 32.137921 32.108282 32.084251 32.064962
32.049633 32.037575 32.028185 32.020945 32.015421 32.011247 32.008126 32.005815
32.004122 32.002894 32.002012 32.001386 32.000945 32.000638 32.000427 32.000283
32.000185 32.000120 32.000077 32.000049 32.000031 32.000019 32.000012 32.000007
32.000004 32.000003 32.000002 32.000001 32.000001 32.000000 32.000000 32.000000
32.000000 32.000000 32.000000 32.000000 32.000000 32.000000 32.000000 32.000000
32.000000 32.000000 32.000000 32.000000 32.000000 32.000000 32.000000 32.000000
32.000000 32.000000 32.000000 32.000000 32.000000 32.000000 32.000000 32.000000
32.000000 32.000000 32.000000 32.000000 32.000000 32.000000 32.000000 32.000000
32.000000 32.000000 32.000000 32.000000 32.000000 32.000000 32.000000 32.000000
32.000000 32.000000 32.000000 32.000000 32.000000 32.000000 32.000000 32.000000
32.000000 32.000000 32.000000 32.000000 32.000000 32.000000 32.000000 32.000000
32.000000 32.000000 32.000000 32.000000 32.000000 32.000000 32.000000 32.000000
32.000000 32.000000 32.000000 32.000000 32.000000 32.000000 32.000000 32.000000
32.000001 32.000001 32.000002 32.000003 32.000004 32.000007 32.000012 32.000019
32.000031 32.000049 32.000077 32.000120 32.000185 32.000283 32.000427 32.000638
32.000945 32.001386 32.002012 32.002894 32.004122 32.005815 32.008126 32.011247
32.015421 32.020945 32.028185 32.037575 32.049633 32.064962 32.084251 32.108282
32.137921 32.174109 32.217853 32.270202 32.332225 32.404976 32.489460 32.586596
32.697164 32.821773 32.960811 33.114407 33.282403 33.464326 33.659378 33.866432
34.084051 34.310507 34.543826 34.781834 35.022222
35.400000 35.129563 34.861804 34.599321 34.344558 34.099736 33.866800 33.647367
33.442703 33.253708 33.080912 32.924495 32.784310 32.659920 32.550643 32.455598
32.373753 32.303977 32.245084 32.195872 32.155161 32.121818 32.094783 32.073082
32.055838 32.042272 32.031708 32.023563 32.017348 32.012653 32.009141 32.006542
32.004637 32.003256 32.002264 32.001559 32.001063 32.000718 32.000480 32.000318
32.000209 32.000135 32.000087 32.000055 32.000035 32.000022 32.000013 32.000008
32.000005 32.000003 32.000002 32.000001 32.000001 32.000000 32.000000 32.000000
32.000000 32.000000 32.000000 32.000000 32.000000 32.000000 32.000000 32.000000
32.000000 32.000000 32.000000 32.000000 32.000000 32.000000 32.000000 32.000000
32.000000 32.000000 32.000000 32.000000 32.000000 32.000000 32.000000 32.000000
32.000000 32.000000 32.000000 32.000000 32.000000 32.000000 32.000000 32.000000
32.000000 32.000000 32.000000 32.000000 32.000000 32.000000 32.000000 32.000000
32.000000 32.000000 32.000000 32.000000 32.000000 32.000000 32.000000 32.000000
32.000000 32.000000 32.000000 32.000000 32.000000 32.000000 32.000000 32.000000
32.000000 32.000000 32.000000 32.000000 32.000000 32.000000 32.000000 32.000000
32.000000 32.000000 32.000000 32.000000 32.000000 32.000000 32.000000 32.000000
32.000001 32.000001 32.000002 32.000003 32.000005 32.000008 32.000013 32.000022
32.000035 32.000055 32.000087 32.000135 32.000209 32.000318 32.000480 32.000718
32.001063 32.001559 32.002264 32.003256 32.004637 32.006542 32.009141 32.012653
32.017348 32.023563 32.031708 32.042272 32.055838 32.073082 32.094783 32.121818
32.155161 32.195872 32.245084 32.303977 32.373753 32.455598 32.550643 32.659920
32.784310 32.924495 33.080912 33.253708 33.442703 33.647367 33.866800 34.099736
34.344558 34.599321 34.861804 35.129563 35.400000
35.777778 35.477292 35.179782 34.888134 34.605064 34.333040 34.074222 33.830408
33.603004 33.393009 33.201013 33.027216 32.871455 32.733244 32.611826 32.506220
32.415281 32.337753 32.272316 32.217636 32.172401 32.135353 32.105314 32.081202
32.062042 32.046969 32.035231 32.026182 32.019276 32.014059 32.010157 32.007269
32.005153 32.003617 32.002515 32.001732 32.001181 32.000798 32.000534 32.000353
32.000232 32.000150 32.000097 32.000062 32.000039 32.000024 32.000015 32.000009
32.000006 32.000003 32.000002 32.000001 32.000001 32.000000 32.000000 32.000000
32.000000 32.000000 32.000000 32.000000 32.000000 32.000000 32.000000 32.000000
32.000000 32.000000 32.000000 32.000000 32.000000 32.000000 32.000000 32.000000
32.000000 32.000000 32.000000 32.000000 32.000000 32.000000 32.000000 32.000000
32.000000 32.000000 32.000000 32.000000 32.000000 32.000000 32.000000 32.000000
32.000000 32.000000 32.000000 32.000000 32.000000 32.000000 32.000000 32.000000
32.000000 32.000000 32.000000 32.000000 32.000000 32.000000 32.000000 32.000000
32.000000 32.000000 32.000000 32.000000 32.000000 32.000000 32.000000 32.000000
32.000000 32.000000 32.000000 32.000000 32.000000 32.000000 32.000000 32.000000
32.000000 32.000000 32.000000 32.000000 32.000000 32.000000 32.000000 32.000000
32.000001 32.000001 32.000002 32.000003 32.000006 32.000009 32.000015 32.000024
32.000039 32.000062 32.000097 32.000150 32.000232 32.000353 32.000534 32.000798
32.001181 32.001732 32.002515 32.003617 32.005153 32.007269 32.010157 32.014059
32.019276 32.026182 32.035231 32.046969 32.062042 32.081202 32.105314 32.135353
32.172401 32.217636 32.272316 32.337753 32.415281 32.506220 32.611826 32.733244
32.871455 33.027216 33.201013 33.393009 33.603004 33.830408 34.074222 34.333040
34.605064 34.888134 35.179782 35.477292 35.777778
36.155556 35.825022 35.497760 35.176948 34.865570 34.566345 34.281644 34.013448
33.763304 33.532309 33.321115 33.129938 32.958601 32.806569 32.673008 32.556841
32.456809 32.371528 32.299548 32.239400 32.189641 32.148888 32.115845 32.089322
32.068246 32.051666 32.038754 32.028800 32.021203 32.015464 32.011173 32.007996
32.005668 32.003979 32.002767 32.001905 32.001300 32.000878 32.000587 32.000389
32.000255 32.000165 32.000106 32.000068 32.000043 32.000027 32.000016 32.000010
32.000006 32.000004 32.000002 32.000001 32.000001 32.000000 32.000000 32.000000
32.000000 32.000000 32.000000 32.000000 32.000000 32.000000 32.000000 32.000000
32.000000 32.000000 32.000000 32.000000 32.000000 32.000000 32.000000 32.000000
32.000000 32.000000 32.000000 32.000000 32.000000 32.000000 32.000000 32.000000
32.000000 32.000000 32.000000 32.000000 32.000000 32.000000 32.000000 32.000000
32.000000 32.000000 32.000000 32.000000 32.000000 32.000000 32.000000 32.000000
32.000000 32.000000 32.000000 32.000000 32.000000 32.000000 32.000000 32.000000
32.000000 32.000000 32.000000 32.000000 32.000000 32.000000 32.000000 32.000000
32.000000 32.000000 32.000000 32.000000 32.000000 32.000000 32.000000 32.000000
32.000000 32.000000 32.000000 32.000000 32.000000 32.000000 32.000000 32.000000
32.000001 32.000001 32.000002 32.000004 32.000006 32.000010 32.000016 32.000027
32.000043 32.000068 32.000106 32.000165 32.000255 32.000389 32.000587 32.000878
32.001300 32.001905 32.002767 32.003979 32.005668 32.007996 32.011173 32.015464
32.021203 32.028800 32.038754 32.051666 32.068246 32.089322 32.115845 32.148888
32.189641 32.239400 32.299548 32.371528 32.456809 32.556841 32.673008 32.806569
32.958601 33.129938 33.321115 33.532309 33.763304 34.013448 34.281644 34.566345
34.865570 35.176948 35.497760 35.825022 36.155556
36.533333 36.172751 35.815739 35.465761 35.126077 34.799649 34.489066 34.196489
33.923604 33.671610 33.441216 33.232660 33.045746 32.879893 32.734191 32.607463
32.498337 32.405303 32.326779 32.261163 32.206881 32.162423 32.126377 32.097443
32.074450 32.056363 32.042277 32.031418 32.023131 32.016870 32.012188 32.008723
32.006183 32.004341 32.003019 32.002079 32.001418 32.000957 32.000640 32.000424
32.000278 32.000181 32.000116 32.000074 32.000047 32.000029 32.000018 32.000011
32.000007 32.000004 32.000002 32.000001 32.000001 32.000000 32.000000 32.000000
32.000000 32.000000 32.000000 32.000000 32.000000 32.000000 32.000000 32.000000
32.000000 32.000000 32.000000 32.000000 32.000000 32.000000 32.000000 32.000000
32.000000 32.000000 32.000000 32.000000 32.000000 32.000000 32.000000 32.000000
32.000000 32.000000 32.000000 32.000000 32.000000 32.000000 32.000000 32.000000
32.000000 32.000000 32.000000 32.000000 32.000000 32.000000 32.000000 32.000000
32.000000 32.000000 32.000000 32.000000 32.000000 32.000000 32.000000 32.000000
32.000000 32.000000 32.000000 32.000000 32.000000 32.000000 32.000000 32.000000
32.000000 32.000000 32.000000 32.000000 32.000000 32.000000 32.000000 32.000000
32.000000 32.000000 32.000000 32.000000 32.000000 32.000000 32.000000 32.000000
32.000001 32.000001 32.000002 32.000004 32.000007 32.000011 32.000018 32.000029
32.000047 32.000074 32.000116 32.000181 32.000278 32.000424 32.000640 32.000957
32.001418 32.002079 32.003019 32.004341 32.006183 32.008723 32.012188 32.016870
32.023131 32.031418 32.042277 32.056363 32.074450 32.097443 32.126377 32.162423
32.206881 32.261163 32.326779 32.405303 32.498337 32.607463 32.734191 32.879893
33.045746 33.232660 33.441216 33.671610 33.923604 34.196489 34.489066 34.799649
35.126077 35.465761 35.815739 36.172751 36.533333
36.911111 36.520480 36.133717 35.754574 35.386583 35.032953 34.696489 34.379530
34.083905 33.810911 33.561317 33.335381 33.132892 32.953218 32.795373 32.658085
32.539865 32.439078 32.354011 32.282927 32.224121 32.175959 32.136908 32.105563
32.080654 32.061060 32.045800 32.034036 32.025058 32.018276 32.013204 32.009449
32.006698 32.004703 32.003270 32.002252 32.001536 32.001037 32.000694 32.000459
32.000301 32.000196 32.000126 32.000080 32.000050 32.000031 32.000019 32.000012
32.000007 32.000004 32.000003 32.000001 32.000001 32.000000 32.000000 32.000000
32.000000 32.000000 32.000000 32.000000 32.000000 32.000000 32.000000 32.000000
32.000000 32.000000 32.000000 32.000000 32.000000 32.000000 32.000000 32.000000
32.000000 32.000000 32.000000 32.000000 32.000000 32.000000 32.000000 32.000000
32.000000 32.000000 32.000000 32.000000 32.000000 32.000000 32.000000 32.000000
32.000000 32.000000 32.000000 32.000000 32.000000 32.000000 32.000000 32.000000
32.000000 32.000000 32.000000 32.000000 32.000000 32.000000 32.000000 32.000000
32.000000 32.000000 32.000000 32.000000 32.000000 32.000000 32.000000 32.000000
32.000000 32.000000 32.000000 32.000000 32.000000 32.000000 32.000000 32.000000
32.000000 32.000000 32.000000 32.000000 32.000000 32.000000 32.000000 32.000000
32.000001 32.000001 32.000003 32.000004 32.000007 32.000012 32.000019 32.000031
32.000050 32.000080 32.000126 32.000196 32.000301 32.000459 32.000694 32.001037
32.001536 32.002252 32.003270 32.004703 32.006698 32.009449 32.013204 32.018276
32.025058 32.034036 32.045800 32.061060 32.080654 32.105563 32.136908 32.175959
32.224121 32.282927 32.354011 32.439078 32.539865 32.658085 32.795373 32.953218
33.132892 33.335381 33.561317 33.810911 34.083905 34.379530 34.696489 35.032953
35.386583 35.754574 36.133717 36.520480 36.911111
37.288889 36.868209 36.451695 36.043388 35.647090 35.266257 34.903911 34.562571
34.244205 33.950212 33.681418 33.438103 33.220037 33.026542 32.856556 32.708707
32.581393 32.472854 32.381242 32.304690 32.241361 32.189494 32.147440 32.113683
32.086858 32.065757 32.049323 32.036654 32.026986 32.019682 32.014220 32.010176
32.007214 32.005064 32.003522 32.002425 32.001654 32.001117 32.000747 32.000495
32.000324 32.000211 32.000135 32.000086 32.000054 32.000034 32.000021 32.000013
32.000008 32.000005 32.000003 32.000002 32.000001 32.000001 32.000000 32.000000
32.000000 32.000000 32.000000 32.000000 32.000000 32.000000 32.000000 32.000000
32.000000 32.000000 32.000000 32.000000 32.000000 32.000000 32.000000 32.000000
32.000000 32.000000 32.000000 32.000000 32.000000 32.000000 32.000000 32.000000
32.000000 32.000000 32.000000 32.000000 32.000000 32.000000 32.000000 32.000000
32.000000 32.000000 32.000000 32.000000 32.000000 32.000000 32.000000 32.000000
32.000000 32.000000 32.000000 32.000000 32.000000 32.000000 32.000000 32.000000
32.000000 32.000000 32.000000 32.000000 32.000000 32.000000 32.000000 32.000000
32.000000 32.000000 32.000000 32.000000 32.000000 32.000000 32.000000 32.000000
32.000000 32.000000 32.000000 32.000000 32.000000 32.000000 32.000000 32.000001
32.000001 32.000002 32.000003 32.000005 32.000008 32.000013 32.000021 32.000034
32.000054 32.000086 32.000135 32.000211 32.000324 32.000495 32.000747 32.001117
32.001654 32.002425 32.003522 32.005064 32.007214 32.010176 32.014220 32.019682
32.026986 32.036654 32.049323 32.065757 32.086858 32.113683 32.147440 32.189494
32.241361 32.304690 32.381242 32.472854 32.581393 32.708707 32.856556 33.026542
33.220037 33.438103 33.681418 33.950212 34.244205 34.562571 34.903911 35.266257
35.647090 36.043388 36.451695 36.868209 37.288889
37.666667 37.215939 36.769673 36.332201 35.907596 35.499561 35.111333 34.745611
34.404505 34.089513 33.801520 33.540825 33.307183 33.099867 32.917738 32.759329
32.622921 32.506629 32.408474 32.326454 32.258601 32.203029 32.157971 32.121803
32.093063 32.070453 32.052846 32.039272 32.028914 32.021088 32.015235 32.010903
32.007729 32.005426 32.003773 32.002598 32.001772 32.001197 32.000800 32.000530
32.000348 32.000226 32.000145 32.000092 32.000058 32.000036 32.000022 32.000014
32.000008 32.000005 32.000003 32.000002 32.000001 32.000001 32.000000 32.000000
32.000000 32.000000 32.000000 32.000000 32.000000 32.000000 32.000000 32.000000
32.000000 32.000000 32.000000 32.000000 32.000000 32.000000 32.000000 32.000000
32.000000 32.000000 32.000000 32.000000 32.000000 32.000000 32.000000 32.000000
32.000000 32.000000 32.000000 32.000000 32.000000 32.000000 32.000000 32.000000
32.000000 32.000000 32.000000 32.000000 32.000000 32.000000 32.000000 32.000000
32.000000 32.000000 32.000000 32.000000 32.000000 32.000000 32.000000 32.000000
32.000000 32.000000 32.000000 32.000000 32.000000 32.000000 32.000000 32.000000
32.000000 32.000000 32.000000 32.000000 32.000000 32.000000 32.000000 32.000000
32.000000 32.000000 32.000000 32.000000 32.000000 32.000000 32.000000 32.000001
32.000001 32.000002 32.000003 32.000005 32.000008 32.000014 32.000022 32.000036
32.000058 32.000092 32.000145 32.000226 32.000348 32.000530 32.000800 32.001197
32.001772 32.002598 32.003773 32.005426 32.007729 32.010903 32.015235 32.021088
32.028914 32.039272 32.052846 32.070453 32.093063 32.121803 32.157971 32.203029
32.258601 32.326454 32.408474 32.506629 32.622921 32.759329 32.917738 33.099867
33.307183 33.540825 33.801520 34.089513 34.404505 34.745611 35.111333 35.499561
35.907596 36.332201 36.769673 37.215939 37.666667
38.044444 37.563668 37.087651 36.621015 36.168102 35.732865 35.318755 34.928652
34.564806 34.228814 33.921621 33.643546 33.394328 33.173191 32.978921 32.809951
32.664450 32.540404 32.435706 32.348218 32.275841 32.216565 32.168502 32.129923
32.099267 32.075150 32.056369 32.041891 32.030841 32.022494 32.016251 32.011630
32.008244 32.005788 32.004025 32.002772 32.001890 32.001277 32.000854 32.000565
32.000371 32.000241 32.000155 32.000098 32.000062 32.000039 32.000024 32.000015
32.000009 32.000005 32.000003 32.000002 32.000001 32.000001 32.000000 32.000000
32.000000 32.000000 32.000000 32.000000 32.000000 32.000000 32.000000 32.000000
32.000000 32.000000 32.000000 32.000000 32.000000 32.000000 32.000000 32.000000
32.000000 32.000000 32.000000 32.000000 32.000000 32.000000 32.000000 32.000000