# vtk DataFile Version 3.0
Steady-state temperature (Jacobi)
ASCII
DATASET STRUCTURED_POINTS
DIMENSIONS 181 181 1
ORIGIN 0.0 0.0 0.0
SPACING 0.05 0.05 1.0
POINT_DATA 32761
SCALARS Temperature float 1
LOOKUP_TABLE default
32.000000 32.000000 32.000000 32.000000 32.000000 32.000000 32.000000 32.000000
32.000000 32.000000 32.000000 32.000000 32.000000 32.000000 32.000000 32.000000
32.000000 32.000000 32.000000 32.000000 32.000000 32.000000 32.000000 32.000000
32.000000 32.000000 32.000000 32.000000 32.000000 32.000000 32.000000 32.000000
32.000000 32.000000 32.000000 32.000000 32.000000 32.000000 32.000000 32.000000
32.000000 32.000000 32.000000 32.000000 32.000000 32.000000 32.000000 32.000000
32.000000 32.000000 32.000000 32.000000 32.000000 32.000000 32.000000 32.000000
32.000000 32.000000 32.000000 32.000000 32.000000 32.000000 32.000000 32.000000
32.000000 32.000000 32.000000 32.000000 32.000000 32.000000 32.000000 32.000000
32.000000 32.000000 32.000000 32.000000 32.000000 32.000000 32.000000 32.000000
32.000000 32.000000 32.000000 32.000000 32.000000 32.000000 32.000000 32.000000
32.000000 32.000000 32.000000 32.000000 32.000000 32.000000 32.000000 32.000000
32.000000 32.000000 32.000000 32.000000 32.000000 32.000000 32.000000 32.000000
32.000000 32.000000 32.000000 32.000000 32.000000 32.000000 32.000000 32.000000
32.000000 32.000000 32.000000 32.000000 32.000000 32.000000 32.000000 32.000000
32.000000 32.000000 32.000000 32.000000 32.000000 32.000000 32.000000 32.000000
32.000000 32.000000 32.000000 32.000000 32.000000 32.000000 32.000000 32.000000
32.000000 32.000000 32.000000 32.000000 32.000000 32.000000 32.000000 32.000000
32.000000 32.000000 32.000000 32.000000 32.000000 32.000000 32.000000 32.000000
32.000000 32.000000 32.000000 32.000000 32.000000 32.000000 32.000000 32.000000
32.000000 32.000000 32.000000 32.000000 32.000000 32.000000 32.000000 32.000000
32.000000 32.000000 32.000000 32.000000 32.000000 32.000000 32.000000 32.000000
32.000000 32.000000 32.000000 32.000000 32.000000
32.377778 32.387204 32.396634 32.406069 32.415513 32.424968 32.434437 32.443923
32.453429 32.462956 32.472508 32.482087 32.491695 32.501334 32.511007 32.520714
32.530457 32.540239 32.550060 32.559922 32.569824 32.579769 32.589756 32.599786
32.609859 32.619973 32.630130 32.640327 32.650564 32.660840 32.671152 32.681499
32.691877 32.702286 32.712722 32.723181 32.733659 32.744153 32.754659 32.765172
32.775686 32.786197 32.796698 32.807184 32.817649 32.828085 32.838486 32.848845
32.859152 32.869402 32.879585 32.889694 32.899718 32.909649 32.919479 32.929196
32.938793 32.948258 32.957581 32.966754 32.975764 32.984603 32.993259 33.001722
33.009981 33.018026 33.025847 33.033434 33.040776 33.047863 33.054685 33.061232
33.067496 33.073467 33.079136 33.084495 33.089536 33.094251 33.098632 33.102673
33.106367 33.109709 33.112693 33.115314 33.117569 33.119453 33.120963 33.122098
33.122854 33.123232 33.123230 33.122848 33.122087 33.120948 33.119434 33.117547
33.115289 33.112665 33.109680 33.106337 33.102642 33.098602 33.094223 33.089511
33.084474 33.079120 33.073457 33.067494 33.061240 33.054703 33.047894 33.040821
33.033496 33.025928 33.018127 33.010104 33.001869 32.993433 32.984806 32.975999
32.967023 32.957888 32.948604 32.939181 32.929630 32.919960 32.910183 32.900305
32.890339 32.880292 32.870173 32.859991 32.849754 32.839471 32.829149 32.818795
32.808416 32.798020 32.787613 32.777200 32.766789 32.756382 32.745988 32.735608
32.725249 32.714914 32.704607 32.694331 32.684090 32.673885 32.663720 32.653595
32.643514 32.633478 32.623487 32.613542 32.603645 32.593795 32.583993 32.574237
32.564529 32.554866 32.545249 32.535676 32.526146 32.516656 32.507207 32.497795
32.488418 32.479075 32.469764 32.460481 32.451224 32.441991 32.432778 32.423584
32.414404 32.405237 32.396079 32.386927 32.377778
32.755556 32.774411 32.793272 32.812145 32.831034 32.849947 32.868888 32.887862
32.906876 32.925934 32.945041 32.964201 32.983420 33.002701 33.022048 33.041466
33.060956 33.080523 33.100169 33.119895 33.139705 33.159598 33.179577 33.199641
33.219790 33.240024 33.260342 33.280742 33.301222 33.321778 33.342409 33.363108
33.383873 33.404697 33.425574 33.446499 33.467464 33.488459 33.509479 33.530512
33.551549 33.572579 33.593591 33.614573 33.635512 33.656394 33.677206 33.697932
33.718559 33.739069 33.759446 33.779673 33.799733 33.819607 33.839277 33.858724
33.877928 33.896870 33.915530 33.933886 33.951919 33.969607 33.986931 34.003869
34.020399 34.036502 34.052155 34.067339 34.082034 34.096218 34.109873 34.122979
34.135517 34.147468 34.158816 34.169542 34.179632 34.189069 34.197839 34.205927
34.213322 34.220012 34.225985 34.231232 34.235745 34.239517 34.242540 34.244811
34.246325 34.247081 34.247076 34.246312 34.244789 34.242510 34.239479 34.235701
34.231182 34.225930 34.219953 34.213262 34.205866 34.197779 34.189013 34.179581
34.169499 34.158783 34.147448 34.135513 34.122994 34.109910 34.096281 34.082126
34.067464 34.052316 34.036703 34.020645 34.004164 33.987280 33.970015 33.952390
33.934425 33.916142 33.897562 33.878705 33.859591 33.840241 33.820673 33.800908
33.780964 33.760859 33.740610 33.720236 33.699752 33.679175 33.658520 33.637803
33.617037 33.596236 33.575412 33.554579 33.533746 33.512926 33.492128 33.471362
33.450637 33.429960 33.409339 33.388781 33.368291 33.347875 33.327538 33.307285
33.287117 33.267039 33.247052 33.227158 33.207359 33.187655 33.168045 33.148531
33.129110 33.109782 33.090543 33.071394 33.052330 33.033348 33.014446 32.995619
32.976864 32.958175 32.939549 32.920981 32.902465 32.883996 32.865569 32.847178
32.828817 32.810480 32.792162 32.773856 32.755556
33.133333 33.161622 33.189919 33.218234 33.246574 33.274949 33.303366 33.331834
33.360360 33.388953 33.417620 33.446368 33.475202 33.504131 33.533160 33.562294
33.591538 33.620897 33.650374 33.679973 33.709697 33.739547 33.769525 33.799633
33.829868 33.860231 33.890720 33.921333 33.952066 33.982915 34.013875 34.044940
34.076102 34.107355 34.138688 34.170094 34.201558 34.233072 34.264620 34.296191
34.327767 34.359334 34.390874 34.422370 34.453801 34.485149 34.516391 34.547507
34.578472 34.609264 34.639856 34.670225 34.700342 34.730182 34.759715 34.788915
34.817750 34.846192 34.874210 34.901775 34.928854 34.955417 34.981432 35.006868
35.031692 35.055875 35.079384 35.102189 35.124257 35.145561 35.166069 35.185754
35.204585 35.222536 35.239580 35.255693 35.270848 35.285023 35.298196 35.310346
35.321454 35.331502 35.340475 35.348357 35.355137 35.360802 35.365344 35.368755
35.371030 35.372165 35.372159 35.371010 35.368722 35.365299 35.360746 35.355070
35.348282 35.340392 35.331415 35.321363 35.310255 35.298106 35.284939 35.270772
35.255629 35.239532 35.222507 35.204580 35.185777 35.166125 35.145655 35.124395
35.102375 35.079625 35.056177 35.032061 35.007310 34.981955 34.956028 34.929560
34.902584 34.875130 34.847230 34.818915 34.790216 34.761161 34.731782 34.702105
34.672161 34.641975 34.611576 34.580987 34.550236 34.519345 34.488339 34.457238
34.426066 34.394841 34.363584 34.332311 34.301042 34.269791 34.238575 34.207407
34.176300 34.145267 34.114319 34.083464 34.052714 34.022075 33.991556 33.961160
33.930896 33.900765 33.870773 33.840920 33.811210 33.781643 33.752219 33.722937
33.693796 33.664794 33.635929 33.607195 33.578592 33.550111 33.521751 33.493503
33.465363 33.437324 33.409379 33.381520 33.353740 33.326031 33.298385 33.270793
33.243246 33.215736 33.188253 33.160788 33.133333
33.511111 33.548840 33.586580 33.624343 33.662140 33.699984 33.737885 33.775853
33.813900 33.852036 33.890270 33.928612 33.967072 34.005657 34.044376 34.083236
34.122243 34.161404 34.200723 34.240206 34.279856 34.319675 34.359666 34.399828
34.440164 34.480670 34.521346 34.562187 34.603190 34.644348 34.685656 34.727104
34.768684 34.810384 34.852195 34.894101 34.936089 34.978142 35.020244 35.062375
35.104517 35.146646 35.188741 35.230778 35.272731 35.314572 35.356276 35.397810
35.439146 35.480250 35.521091 35.561633 35.601842 35.641680 35.681112 35.720098
35.758600 35.796577 35.833991 35.870798 35.906960 35.942432 35.977174 36.011143
36.044298 36.076595 36.107994 36.138452 36.167930 36.196385 36.223779 36.250072
36.275227 36.299206 36.321975 36.343498 36.363744 36.382681 36.400279 36.416511
36.431351 36.444776 36.456764 36.467295 36.476352 36.483921 36.489990 36.494547
36.497587 36.499103 36.499094 36.497560 36.494503 36.489930 36.483846 36.476264
36.467194 36.456654 36.444659 36.431231 36.416389 36.400160 36.382569 36.363643
36.343413 36.321910 36.299167 36.275220 36.250102 36.223853 36.196510 36.168113
36.138701 36.108315 36.076997 36.044790 36.011733 35.977872 35.943246 35.907901
35.871877 35.835217 35.797961 35.760154 35.721833 35.683040 35.643813 35.604193
35.564214 35.523916 35.483333 35.442500 35.401449 35.360215 35.318826 35.277314
35.235706 35.194031 35.152312 35.110576 35.068843 35.027138 34.985479 34.943887
34.902376 34.860966 34.819669 34.778500 34.737469 34.696590 34.655869 34.615316
34.574938 34.534740 34.494726 34.454902 34.415266 34.375824 34.336571 34.297511
34.258638 34.219953 34.181448 34.143123 34.104969 34.066981 34.029153 33.991477
33.953944 33.916547 33.879274 33.842118 33.805067 33.768111 33.731239 33.694439
33.657700 33.621010 33.584356 33.547728 33.511111
33.888889 33.936066 33.983257 34.030478 34.077742 34.125064 34.172457 34.219936
34.267512 34.315201 34.363013 34.410962 34.459057 34.507310 34.555731 34.604329
34.653112 34.702089 34.751264 34.800645 34.850236 34.900040 34.950059 35.000297
35.050750 35.101419 35.152300 35.203391 35.254685 35.306175 35.357853 35.409710
35.461731 35.513908 35.566221 35.618658 35.671197 35.723821 35.776507 35.829233
35.881972 35.934700 35.987385 36.040000 36.092511 36.144887 36.197089 36.249084
36.300831 36.352292 36.403423 36.454183 36.504527 36.554411 36.603785 36.652606
36.700820 36.748381 36.795235 36.841335 36.886625 36.931055 36.974571 37.017121
37.058652 37.099111 37.138445 37.176603 37.213532 37.249183 37.283504 37.316448
37.347966 37.378013 37.406542 37.433513 37.458882 37.482613 37.504666 37.525007
37.543605 37.560429 37.575452 37.588650 37.600001 37.609488 37.617093 37.622805
37.626615 37.628515 37.628504 37.626581 37.622750 37.617018 37.609394 37.599891
37.588525 37.575315 37.560283 37.543454 37.524856 37.504517 37.482473 37.458756
37.433407 37.406462 37.377965 37.347957 37.316487 37.283598 37.249340 37.213761
37.176914 37.138847 37.099614 37.059267 37.017859 36.975443 36.932073 36.887801
36.842683 36.796768 36.750111 36.702762 36.654774 36.606195 36.557077 36.507465
36.457410 36.406954 36.356145 36.305023 36.253633 36.202013 36.150204 36.098241
36.046161 35.993997 35.941782 35.889546 35.837319 35.785125 35.732994 35.680945
35.629003 35.577185 35.525514 35.474002 35.422668 35.371521 35.320577 35.269843
35.219331 35.169044 35.118991 35.069173 35.019596 34.970259 34.921164 34.872307
34.823689 34.775304 34.727148 34.679215 34.631499 34.583992 34.536685 34.489568
34.442633 34.395866 34.349257 34.302793 34.256462 34.210250 34.164143 34.118127
34.072187 34.026308 33.980476 33.934675 33.888889
34.266667 34.323303 34.379957 34.436646 34.493388 34.550199 34.607097 34.664097
34.721216 34.778469 34.835873 34.893440 34.951185 35.009120 35.067258 35.125609
35.184185 35.242993 35.302043 35.361340 35.420892 35.480700 35.540770 35.601102
35.661696 35.722551 35.783664 35.845029 35.906642 35.968491 36.030570 36.092864
36.155361 36.218044 36.280896 36.343897 36.407026 36.470258 36.533569 36.596928
36.660309 36.723676 36.786998 36.850236 36.913354 36.976310 37.039064 37.101568
37.163779 37.225647 37.287124 37.348156 37.408693 37.468677 37.528054 37.586764
37.644751 37.701953 37.758310 37.813759 37.868239 37.921685 37.974036 38.025226
38.075192 38.123870 38.171198 38.217111 38.261550 38.304449 38.345752 38.385397
38.423329 38.459490 38.493828 38.526289 38.556826 38.585388 38.611934 38.636419
38.658806 38.679058 38.697143 38.713031 38.726696 38.738116 38.747272 38.754148
38.758735 38.761023 38.761009 38.758695 38.754083 38.747182 38.738003 38.726564
38.712881 38.696979 38.678883 38.658625 38.636237 38.611756 38.585221 38.556675
38.526162 38.493732 38.459433 38.423320 38.385444 38.345865 38.304638 38.261825
38.217485 38.171681 38.124475 38.075931 38.026112 37.975083 37.922908 37.869652
37.815377 37.760149 37.704029 37.647082 37.589367 37.530946 37.471876 37.412220
37.352029 37.291362 37.230271 37.168810 37.107027 37.044972 36.982691 36.920230
36.857629 36.794932 36.732175 36.669398 36.606631 36.543911 36.481265 36.418724
36.356311 36.294054 36.231972 36.170087 36.108414 36.046973 35.985774 35.924834
35.864158 35.803758 35.743639 35.683807 35.624263 35.565012 35.506051 35.447381
35.388997 35.330895 35.273070 35.215515 35.158220 35.101178 35.044377 34.987807
34.931454 34.875306 34.819348 34.763565 34.707942 34.652462 34.597109 34.541866
34.486715 34.431638 34.376616 34.321632 34.266667
34.644444 34.710553 34.776683 34.842854 34.909086 34.975400 35.041815 35.108352
35.175027 35.241861 35.308870 35.376073 35.443483 35.511118 35.578990 35.647114
35.715500 35.784161 35.853105 35.922341 35.991875 36.061713 36.131856 36.202310
36.273072 36.344142 36.415514 36.487187 36.559148 36.631393 36.703905 36.776675
36.849683 36.922914 36.996344 37.069954 37.143715 37.217603 37.291583 37.365627
37.439697 37.513759 37.587768 37.661686 37.735466 37.809063 37.882424 37.955501
38.028237 38.100579 38.172464 38.243837 38.314630 38.384785 38.454231 38.522904
38.590731 38.657647 38.723576 38.788449 38.852189 38.914725 38.975980 39.035883
39.094354 39.151324 39.206713 39.260451 39.312463 39.362680 39.411026 39.457437
39.501842 39.544177 39.584378 39.622384 39.658136 39.691581 39.722662 39.751334
39.777548 39.801264 39.822442 39.841047 39.857050 39.870424 39.881146 39.889199
39.894570 39.897250 39.897235 39.894524 39.889123 39.881041 39.870293 39.856895
39.840872 39.822250 39.801060 39.777338 39.751122 39.722456 39.691386 39.657961
39.622236 39.584266 39.544111 39.501831 39.457492 39.411159 39.362901 39.312786
39.260888 39.207277 39.152029 39.095217 39.036917 38.977202 38.916152 38.853837
38.790337 38.725722 38.660070 38.593451 38.525940 38.457605 38.388518 38.318745
38.248355 38.177408 38.105973 38.034106 37.961870 37.889317 37.816507 37.743487
37.670312 37.597024 37.523675 37.450301 37.376948 37.303649 37.230445 37.157363
37.084439 37.011696 36.939165 36.866864 36.794818 36.723043 36.651558 36.580374
36.509506 36.438960 36.368747 36.298870 36.229336 36.160143 36.091294 36.022784
35.954613 35.886772 35.819258 35.752059 35.685168 35.618573 35.552262 35.486220
35.420435 35.354889 35.289567 35.224450 35.159522 35.094761 35.030150 34.965667
34.901292 34.837003 34.772781 34.708602 34.644444
35.022222 35.097819 35.173439 35.249106 35.324845 35.400677 35.476626 35.552714
35.628963 35.705394 35.782028 35.858882 35.935978 36.013331 36.090959 36.168875
36.247096 36.325631 36.404495 36.483694 36.563238 36.643131 36.723380 36.803983
36.884946 36.966262 37.047931 37.129943 37.212295 37.294970 37.377960 37.461245
37.544811 37.628633 37.712692 37.796957 37.881404 37.965997 38.050706 38.135489
38.220310 38.305122 38.389885 38.474545 38.559055 38.643357 38.727399 38.811117
38.894454 38.977340 39.059713 39.141500 39.222633 39.303035 39.382633 39.461347
39.539102 39.615812 39.691399 39.765776 39.838863 39.910571 39.980818 40.049514
40.116576 40.181916 40.245451 40.307092 40.366760 40.424367 40.479835 40.533082
40.584033 40.632609 40.678740 40.722352 40.763382 40.801762 40.837434 40.870340
40.900428 40.927647 40.951955 40.973310 40.991679 41.007030 41.019338 41.028582
41.034748 41.037824 41.037806 41.034695 41.028495 41.019219 41.006881 40.991503
40.973111 40.951736 40.927415 40.900187 40.870098 40.837199 40.801540 40.763182
40.722184 40.678613 40.632534 40.584022 40.533146 40.479987 40.424620 40.367129
40.307592 40.246096 40.182723 40.117563 40.050696 39.982215 39.912202 39.840748
39.767934 39.693852 39.618581 39.542211 39.464818 39.386490 39.307302 39.227335
39.146663 39.065364 38.983506 38.901162 38.818396 38.735278 38.651865 38.568222
38.484402 38.400464 38.316455 38.232429 38.148426 38.064496 37.980674 37.897002
37.813511 37.730238 37.647206 37.564448 37.481981 37.399833 37.318018 37.236555
37.155453 37.074729 36.994385 36.914434 36.834874 36.755712 36.676944 36.598570
36.520583 36.442980 36.365751 36.288888 36.212377 36.136209 36.060366 35.984836
35.909599 35.834639 35.759935 35.685469 35.611218 35.537161 35.463275 35.389538
35.315924 35.242411 35.168973 35.095585 35.022222
35.400000 35.485101 35.570228 35.655410 35.740671 35.826040 35.911540 35.997199
36.083040 36.169088 36.255364 36.341893 36.428694 36.515789 36.603194 36.690929
36.779008 36.867446 36.956255 37.045447 37.135029 37.225011 37.315394 37.406186
37.497381 37.588984 37.680985 37.773383 37.866162 37.959316 38.052827 38.146679
38.240850 38.335319 38.430057 38.525038 38.620226 38.715589 38.811084 38.906675
39.002310 39.097947 39.193530 39.289009 39.384322 39.479411 39.574209 39.668654
39.762670 39.856190 39.949134 40.041428 40.132986 40.223730 40.313570 40.402423
40.490194 40.576798 40.662136 40.746118 40.828645 40.909625 40.988956 41.066545
41.142291 41.216099 41.287870 41.357510 41.424920 41.490010 41.552683 41.612854
41.670429 41.725327 41.777461 41.826754 41.873127 41.916510 41.956832 41.994029
42.028041 42.058813 42.086292 42.110436 42.131203 42.148559 42.162474 42.172926
42.179897 42.183375 42.183355 42.179837 42.172828 42.162340 42.148391 42.131005
42.110212 42.086047 42.058552 42.027771 41.993759 41.956568 41.916261 41.872903
41.826566 41.777319 41.725243 41.670417 41.612926 41.552855 41.490295 41.425336
41.358072 41.288596 41.217008 41.143401 41.067877 40.990529 40.911461 40.830766
40.748547 40.664896 40.579914 40.493692 40.406328 40.317909 40.228531 40.138276
40.047237 39.955492 39.863127 39.770217 39.676843 39.583073 39.488983 39.394635
39.300099 39.205432 39.110697 39.015944 38.921230 38.826598 38.732101 38.637774
38.543662 38.449797 38.356215 38.262942 38.170010 38.077436 37.985248 37.893457
37.802084 37.711136 37.620627 37.530560 37.440943 37.351775 37.263057 37.174785
37.086956 36.999560 36.912591 36.826036 36.739883 36.654116 36.568721 36.483678
36.398970 36.314574 36.230471 36.146635 36.063045 35.979674 35.896497 35.813488
35.730621 35.647866 35.565196 35.482584 35.400000
35.777778 35.872401 35.967055 36.061769 36.156574 36.251497 36.346570 36.441819
36.537273 36.632958 36.728901 36.825126 36.921658 37.018518 37.115728 37.213306
37.311272 37.409640 37.508427 37.607642 37.707299 37.807401 37.907959 38.008973
38.110446 38.212373 38.314754 38.417578 38.520838 38.624517 38.728603 38.833073
38.937909 39.043080 39.148562 39.254318 39.360317 39.466513 39.572871 39.679337
39.785867 39.892402 39.998891 40.105267 40.211471 40.317430 40.423079 40.528337
40.633132 40.737377 40.840994 40.943890 41.045979 41.147164 41.247355 41.346448
41.444348 41.540948 41.636150 41.729842 41.821923 41.912280 42.000809 42.087396
42.171936 42.254317 42.334433 42.412172 42.487431 42.560100 42.630081 42.697267
42.761563 42.822868 42.881094 42.936147 42.987945 43.036402 43.081443 43.122995
43.160991 43.195367 43.226068 43.253042 43.276244 43.295635 43.311183 43.322861
43.330650 43.334536 43.334514 43.330584 43.322753 43.311034 43.295449 43.276025
43.252793 43.225796 43.195078 43.160692 43.122695 43.081151 43.036126 42.987697
42.935939 42.880938 42.822777 42.761550 42.697349 42.630273 42.560419 42.487894
42.412798 42.335241 42.255328 42.173171 42.088876 42.002557 41.914320 41.824280
41.732541 41.639218 41.544412 41.448235 41.350787 41.252177 41.152499 41.051858
40.950345 40.848059 40.745085 40.641517 40.537436 40.432927 40.328065 40.222930
40.117588 40.012115 39.906568 39.801016 39.695509 39.590109 39.484860 39.379815
39.275012 39.170496 39.066299 38.962458 38.858998 38.755950 38.653332 38.551169
38.449472 38.348260 38.247537 38.147317 38.047599 37.948390 37.849684 37.751482
37.653774 37.556557 37.459816 37.363541 37.267716 37.172327 37.077352 36.982774
36.888570 36.794718 36.701191 36.607967 36.515016 36.422313 36.329826 36.237528
36.145387 36.053373 35.961455 35.869600 35.777778
36.155556 36.259723 36.363923 36.468191 36.572558 36.677059 36.781724 36.886587
36.991676 37.097023 37.202656 37.308604 37.414891 37.521544 37.628586 37.736039
37.843921 37.952254 38.061049 38.170325 38.280089 38.390355 38.501125 38.612406
38.724197 38.836499 38.949304 39.062609 39.176397 39.290661 39.405376 39.520528
39.636087 39.752030 39.868319 39.984924 40.101801 40.218913 40.336205 40.453633
40.571136 40.688661 40.806139 40.923509 41.040694 41.157626 41.274220 41.390399
41.506072 41.621155 41.735549 41.849163 41.961892 42.073638 42.184291 42.293747
42.401890 42.508613 42.613794 42.717323 42.819075 42.918936 43.016780 43.112491
43.205944 43.297020 43.385596 43.471555 43.554774 43.635140 43.712533 43.786845
43.857962 43.925779 43.990190 44.051097 44.108403 44.162019 44.211856 44.257836
44.299881 44.337923 44.371899 44.401751 44.427429 44.448891 44.466099 44.479024
44.487645 44.491947 44.491922 44.487573 44.478905 44.465935 44.448687 44.427188
44.401478 44.371600 44.337606 44.299553 44.257507 44.211535 44.161717 44.108132
44.050869 43.990018 43.925679 43.857949 43.786937 43.712746 43.635492 43.555285
43.472245 43.386486 43.298134 43.207303 43.114121 43.018704 42.921182 42.821669
42.720293 42.617170 42.512423 42.406167 42.298521 42.189595 42.079506 41.968358
41.856264 41.743320 41.629634 41.515296 41.400408 41.285053 41.169325 41.053299
40.937063 40.820685 40.704244 40.587800 40.471423 40.355167 40.239095 40.123250
40.007688 39.892447 39.777571 39.663092 39.549047 39.435460 39.322361 39.209765
39.097697 38.986165 38.875186 38.764762 38.654903 38.545607 38.436876 38.328702
38.221084 38.114006 38.007463 37.901435 37.795910 37.690866 37.586287 37.482145
37.378422 37.275087 37.172116 37.069479 36.967147 36.865088 36.763271 36.661663
36.560230 36.458937 36.357751 36.256635 36.155556
36.533333 36.647066 36.760835 36.874679 36.988632 37.102732 37.217015 37.331514
37.446264 37.561297 37.676648 37.792344 37.908416 38.024891 38.141796 38.259154
38.376988 38.495317 38.614162 38.733534 38.853450 38.973916 39.094945 39.216536
39.338697 39.461420 39.584706 39.708543 39.832923 39.957826 40.083238 40.209133
40.335488 40.462268 40.589443 40.716970 40.844812 40.972914 41.101234 41.229707
41.358281 41.486885 41.615456 41.743916 41.872192 42.000197 42.127852 42.255059
42.381731 42.507764 42.633061 42.757510 42.881009 43.003438 43.124687 43.244631
43.363155 43.480128 43.595429 43.708923 43.820487 43.929982 44.037282 44.142248
44.244751 44.344652 44.441823 44.536127 44.627438 44.715621 44.800554 44.882107
44.960163 45.034599 45.105305 45.172166 45.235081 45.293944 45.348665 45.399151
45.445320 45.487094 45.524406 45.557189 45.585390 45.608960 45.627860 45.642056
45.651524 45.656249 45.656223 45.651445 45.641926 45.627682 45.608738 45.585128
45.556892 45.524081 45.486750 45.444964 45.398793 45.348316 45.293616 45.234786
45.171919 45.105120 45.034492 44.960151 44.882208 44.800787 44.716007 44.627997
44.536882 44.442796 44.345868 44.246235 44.144027 44.039383 43.932433 43.823318
43.712165 43.599112 43.484286 43.367821 43.249840 43.130474 43.009840 42.888064
42.765256 42.641538 42.517013 42.391794 42.265977 42.139669 42.012959 41.885943
41.758701 41.631325 41.503884 41.376459 41.249114 41.121920 40.994931 40.868211
40.741804 40.615766 40.490132 40.364949 40.240246 40.116060 39.992410 39.869328
39.746825 39.624924 39.503630 39.382958 39.262906 39.143481 39.024678 38.906495
38.788921 38.671950 38.555564 38.439752 38.324491 38.209765 38.095547 37.981817
37.868543 37.755702 37.643259 37.531186 37.419448 37.308012 37.196842 37.085902
36.975155 36.864563 36.754088 36.643691 36.533333
36.911111 37.034433 37.157795 37.281238 37.404801 37.528526 37.652450 37.776612
37.901048 38.025797 38.150891 38.276366 38.402252 38.528582 38.655382 38.782681
38.910501 39.038868 39.167796 39.297309 39.427416 39.558133 39.689464 39.821420
39.953998 40.087201 40.221021 40.355454 40.490482 40.626096 40.762268 40.898982
41.036202 41.173902 41.312038 41.450576 41.589463 41.728654 41.868087 42.007709
42.147448 42.287241 42.427006 42.566672 42.706146 42.845348 42.984177 43.122542
43.260333 43.397451 43.533776 43.669202 43.803601 43.936858 44.068839 44.199421
44.328463 44.455838 44.581400 44.705015 44.826533 44.945817 45.062716 45.177090
45.288786 45.397663 45.503570 45.606367 45.705905 45.802047 45.894649 45.983579
46.068697 46.149879 46.226994 46.299925 46.368552 46.432767 46.492464 46.547546
46.597919 46.643502 46.684214 46.719988 46.750762 46.776484 46.797109 46.812602
46.822935 46.828092 46.828063 46.822850 46.812462 46.796917 46.776244 46.750478
46.719667 46.683863 46.643129 46.597535 46.547160 46.492087 46.432413 46.368234
46.299658 46.226795 46.149765 46.068686 45.983690 45.894904 45.802467 45.706512
45.607186 45.504626 45.398982 45.290395 45.179019 45.064994 44.948474 44.829601
44.708527 44.585391 44.460344 44.333519 44.205064 44.075109 43.943794 43.811244
43.677594 43.542960 43.407471 43.271234 43.134370 42.996979 42.859173 42.721042
42.582689 42.444196 42.305656 42.167140 42.028733 41.890497 41.752506 41.614812
41.477481 41.340555 41.204090 41.068120 40.932690 40.797827 40.663566 40.529926
40.396932 40.264596 40.132937 40.001955 39.871663 39.742057 39.613138 39.484897
39.357330 39.230420 39.104157 38.978519 38.853491 38.729045 38.605160 38.481806
38.358956 38.236577 38.114637 37.993100 37.871932 37.751094 37.630547 37.510252
37.390169 37.270255 37.150469 37.030769 36.911111
37.288889 37.421824 37.554804 37.687871 37.821071 37.954446 38.088039 38.221890
38.356042 38.490533 38.625403 38.760686 38.896421 39.032637 39.169369 39.306644
39.444491 39.582931 39.721990 39.861684 40.002032 40.143043 40.284732 40.427101
40.570157 40.713894 40.858314 41.003402 41.149152 41.295540 41.442552 41.590155
41.738326 41.887024 42.036215 42.185847 42.335880 42.486250 42.636905 42.787773
42.938792 43.089879 43.240962 43.391946 43.542749 43.693268 43.843408 43.993057
44.142111 44.290447 44.437951 44.584492 44.729948 44.874177 45.017050 45.158419
45.298145 45.436075 45.572065 45.705955 45.837596 45.966826 46.093492 46.217430
46.338486 46.456493 46.571300 46.682741 46.790665 46.894913 46.995336 47.091781
47.184105 47.272163 47.355820 47.434941 47.509401 47.579077 47.643857 47.703629
47.758298 47.807767 47.851955 47.890784 47.924188 47.952108 47.974496 47.991314
48.002532 48.008130 48.008099 48.002440 47.991164 47.974290 47.951850 47.923883
47.890439 47.851579 47.807368 47.757885 47.703215 47.643453 47.578697 47.509061
47.434656 47.355608 47.272042 47.184096 47.091903 46.995613 46.895367 46.791321
46.683625 46.572439 46.457916 46.340221 46.219509 46.095947 45.969689 45.840902
45.709739 45.576364 45.440928 45.303591 45.164497 45.023803 44.881647 44.738179
44.593530 44.447842 44.301237 44.153850 44.005794 43.857194 43.708155 43.558790
43.409195 43.259474 43.109710 42.959999 42.810414 42.661038 42.511935 42.363179
42.214821 42.066926 41.919535 41.772701 41.626458 41.480849 41.335896 41.191634
41.048077 40.905248 40.763156 40.621813 40.481220 40.341383 40.202294 40.063951
39.926340 39.789452 39.653266 39.517768 39.382930 39.248732 39.115143 38.982136
38.849675 38.717731 38.586263 38.455236 38.324609 38.194343 38.064394 37.934720
37.805275 37.676016 37.546896 37.417869 37.288889
37.666667 37.809242 37.951865 38.094585 38.237447 38.380499 38.523788 38.667358
38.811254 38.955520 39.100195 39.245321 39.390936 39.537077 39.683775 39.831067
39.978978 40.127539 40.276769 40.426695 40.577329 40.728691 40.880787 41.033631
41.187219 41.341558 41.496638 41.652455 41.808992 41.966236 42.124159 42.282741
42.441942 42.601733 42.762064 42.922896 43.084167 43.245828 43.407807 43.570042
43.732451 43.894960 44.057477 44.219916 44.382173 44.544152 44.705737 44.866822
45.027279 45.186992 45.345823 45.503645 45.660310 45.815684 45.969608 46.121939
46.272513 46.421178 46.567763 46.712110 46.854044 46.993403 47.130007 47.263691
47.394276 47.521594 47.645467 47.765728 47.882201 47.994723 48.103124 48.207245
48.306922 48.402007 48.492344 48.577792 48.658211 48.733471 48.803445 48.868017
48.927076 48.980524 49.028266 49.070221 49.106314 49.136485 49.160678 49.178852
49.190974 49.197024 49.196991 49.190876 49.178691 49.160457 49.136209 49.105989
49.069853 49.027863 48.980097 48.926635 48.867575 48.803014 48.733067 48.657849
48.577490 48.492119 48.401880 48.306914 48.207378 48.103422 47.995212 47.882906
47.766677 47.646689 47.523121 47.396137 47.265921 47.132638 46.996472 46.857588
46.716166 46.572371 46.426378 46.278348 46.128452 45.976844 45.823688 45.669130
45.513328 45.356419 45.198553 45.039856 44.880468 44.720507 44.560101 44.399358
44.238396 44.077309 43.916206 43.755170 43.594298 43.433663 43.273348 43.113416
42.953939 42.794969 42.636567 42.478773 42.321639 42.165194 42.009479 41.854513
41.700327 41.546931 41.394346 41.242575 41.091627 40.941498 40.792190 40.643689
40.495991 40.349074 40.202925 40.057520 39.912837 39.768845 39.625518 39.482820
39.340718 39.199174 39.058150 38.917602 38.777490 38.637767 38.498390 38.359310
38.220480 38.081850 37.943371 37.804994 37.666667
38.044444 38.196687 38.348982 38.501380 38.653933 38.806691 38.959706 39.113024
39.266696 39.420766 39.575281 39.730283 39.885816 40.041915 40.198623 40.355970
40.513991 40.672713 40.832166 40.992368 41.153345 41.315107 41.477673 41.641045
41.805235 41.970236 42.136051 42.302665 42.470071 42.638244 42.807169 42.976809
43.147138 43.318111 43.489689 43.661815 43.834441 44.007497 44.180923 44.354637
44.528568 44.702622 44.876714 45.050738 45.224599 45.398177 45.571366 45.744033
45.916061 46.087306 46.257637 46.426902 46.594959 46.761645 46.926809 47.090277
47.251890 47.411469 47.568845 47.723832 47.876256 48.025928 48.172668 48.316283
48.456593 48.593404 48.726535 48.855795 48.981004 49.101974 49.218531 49.330494
49.437694 49.539960 49.637134 49.729054 49.815574 49.896547 49.971842 50.041326