# vtk DataFile Version 3.0
Steady-state temperature (Jacobi)
ASCII
DATASET STRUCTURED_POINTS
DIMENSIONS 181 181 1
ORIGIN 0.0 0.0 0.0
SPACING 0.05 0.05 1.0
POINT_DATA 32761
SCALARS Temperature float 1
LOOKUP_TABLE default
32.000000 32.000000 32.000000 32.000000 32.000000 32.000000 32.000000 32.000000
32.000000 32.000000 32.000000 32.000000 32.000000 32.000000 32.000000 32.000000
32.000000 32.000000 32.000000 32.000000 32.000000 32.000000 32.000000 32.000000
32.000000 32.000000 32.000000 32.000000 32.000000 32.000000 32.000000 32.000000
32.000000 32.000000 32.000000 32.000000 32.000000 32.000000 32.000000 32.000000
32.000000 32.000000 32.000000 32.000000 32.000000 32.000000 32.000000 32.000000
32.000000 32.000000 32.000000 32.000000 32.000000 32.000000 32.000000 32.000000
32.000000 32.000000 32.000000 32.000000 32.000000 32.000000 32.000000 32.000000
32.000000 32.000000 32.000000 32.000000 32.000000 32.000000 32.000000 32.000000
32.000000 32.000000 32.000000 32.000000 32.000000 32.000000 32.000000 32.000000
32.000000 32.000000 32.000000 32.000000 32.000000 32.000000 32.000000 32.000000
32.000000 32.000000 32.000000 32.000000 32.000000 32.000000 32.000000 32.000000
32.000000 32.000000 32.000000 32.000000 32.000000 32.000000 32.000000 32.000000
32.000000 32.000000 32.000000 32.000000 32.000000 32.000000 32.000000 32.000000
32.000000 32.000000 32.000000 32.000000 32.000000 32.000000 32.000000 32.000000
32.000000 32.000000 32.000000 32.000000 32.000000 32.000000 32.000000 32.000000
32.000000 32.000000 32.000000 32.000000 32.000000 32.000000 32.000000 32.000000
32.000000 32.000000 32.000000 32.000000 32.000000 32.000000 32.000000 32.000000
32.000000 32.000000 32.000000 32.000000 32.000000 32.000000 32.000000 32.000000
32.000000 32.000000 32.000000 32.000000 32.000000 32.000000 32.000000 32.000000
32.000000 32.000000 32.000000 32.000000 32.000000 32.000000 32.000000 32.000000
32.000000 32.000000 32.000000 32.000000 32.000000 32.000000 32.000000 32.000000
32.000000 32.000000 32.000000 32.000000 32.000000
32.377778 32.370089 32.362411 32.354755 32.347131 32.339552 32.332025 32.324565
32.317178 32.309879 32.302674 32.295576 32.288592 32.281736 32.275011 32.268433
32.262004 32.255739 32.249639 32.243720 32.237981 32.232438 32.227089 32.221949
32.217014 32.212300 32.207802 32.203535 32.199492 32.195688 32.192115 32.188787
32.185694 32.182851 32.180245 32.177890 32.175773 32.173907 32.172277 32.170896
32.169746 32.168841 32.168160 32.167717 32.167490 32.167491 32.167698 32.168121
32.168738 32.169557 32.170554 32.171739 32.173085 32.174601 32.176260 32.178069
32.180001 32.182062 32.184225 32.186495 32.188844 32.191277 32.193764 32.196312
32.198891 32.201505 32.204126 32.206757 32.209371 32.211971 32.214530 32.217050
32.219506 32.221901 32.224210 32.226435 32.228555 32.230570 32.232462 32.234230
32.235859 32.237348 32.238684 32.239867 32.240886 32.241740 32.242423 32.242933
32.243267 32.243423 32.243401 32.243200 32.242821 32.242266 32.241537 32.240636
32.239570 32.238339 32.236954 32.235415 32.233735 32.231913 32.229967 32.227896
32.225718 32.223433 32.221062 32.218604 32.216081 32.213492 32.210863 32.208190
32.205500 32.202790 32.200087 32.197389 32.194723 32.192085 32.189505 32.186976
32.184529 32.182156 32.179889 32.177720 32.175677 32.173754 32.171979 32.170344
32.168875 32.167566 32.166441 32.165491 32.164743 32.164184 32.163841 32.163701
32.163787 32.164088 32.164625 32.165386 32.166390 32.167624 32.169107 32.170826
32.172795 32.175002 32.177462 32.180159 32.183108 32.186292 32.189724 32.193388
32.197294 32.201427 32.205794 32.210381 32.215191 32.220212 32.225447 32.230880
32.236514 32.242334 32.248340 32.254518 32.260867 32.267373 32.274032 32.280830
32.287764 32.294820 32.301992 32.309267 32.316639 32.324093 32.331624 32.339217
32.346865 32.354555 32.362278 32.370023 32.377778
32.755556 32.740181 32.724829 32.709520 32.694278 32.679121 32.664074 32.649155
32.634389 32.619792 32.605389 32.591195 32.577236 32.563523 32.550084 32.536927
32.524080 32.511549 32.499363 32.487524 32.476061 32.464974 32.454291 32.444009
32.434157 32.424728 32.415751 32.407215 32.399150 32.391541 32.384417 32.377760
32.371598 32.365910 32.360723 32.356013 32.351806 32.348074 32.344843 32.342079
32.339810 32.337999 32.336670 32.335783 32.335363 32.335366 32.335815 32.336663
32.337932 32.339572 32.341604 32.343976 32.346706 32.349741 32.353097 32.356718
32.360621 32.364748 32.369112 32.373656 32.378393 32.383262 32.388277 32.393377
32.398572 32.403805 32.409084 32.414351 32.419615 32.424819 32.429970 32.435016
32.439960 32.444754 32.449401 32.453855 32.458121 32.462155 32.465961 32.469501
32.472778 32.475760 32.478448 32.480816 32.482866 32.484577 32.485950 32.486972
32.487643 32.487956 32.487912 32.487509 32.486748 32.485636 32.484171 32.482367
32.480223 32.477759 32.474973 32.471890 32.468511 32.464864 32.460949 32.456803
32.452421 32.447847 32.443076 32.438155 32.433078 32.427896 32.422603 32.417251
32.411836 32.406411 32.400970 32.395568 32.390198 32.384918 32.379718 32.374657
32.369723 32.364975 32.360401 32.356059 32.351934 32.348086 32.344496 32.341223
32.338248 32.335627 32.333340 32.331439 32.329905 32.328788 32.328066 32.327785
32.327924 32.328526 32.329568 32.331090 32.333067 32.335537 32.338474 32.341911
32.345823 32.350239 32.355132 32.360528 32.366401 32.372771 32.379612 32.386943
32.394734 32.403002 32.411717 32.420891 32.430495 32.440538 32.450991 32.461859
32.473112 32.484753 32.496753 32.509111 32.521797 32.534808 32.548116 32.561713
32.575572 32.589683 32.604019 32.618569 32.633304 32.648213 32.663267 32.678453
32.693743 32.709121 32.724563 32.740049 32.755556
33.133333 33.110282 33.087262 33.064309 33.041453 33.018730 32.996166 32.973801
32.951658 32.929778 32.908179 32.886905 32.865972 32.845422 32.825268 32.805554
32.786289 32.767517 32.749243 32.731511 32.714322 32.697720 32.681702 32.666311
32.651539 32.637431 32.623972 32.611208 32.599117 32.587746 32.577068 32.567127
32.557894 32.549411 32.541641 32.534628 32.528330 32.522787 32.517954 32.513868
32.510479 32.507825 32.505847 32.504584 32.503971 32.504045 32.504737 32.506081
32.508005 32.510540 32.513610 32.517245 32.521363 32.525994 32.531052 32.536564
32.542444 32.548715 32.555288 32.562185 32.569317 32.576702 32.584251 32.591981
32.599802 32.607729 32.615675 32.623651 32.631574 32.639452 32.647205 32.654840
32.662282 32.669535 32.676529 32.683269 32.689688 32.695791 32.701519 32.706874
32.711805 32.716315 32.720361 32.723943 32.727027 32.729615 32.731682 32.733228
32.734238 32.734712 32.734645 32.734037 32.732892 32.731210 32.729006 32.726279
32.723053 32.719327 32.715134 32.710474 32.705388 32.699874 32.693982 32.687711
32.681118 32.674199 32.667019 32.659574 32.651934 32.644093 32.636127 32.628029
32.619878 32.611666 32.603476 32.595296 32.587214 32.579214 32.571386 32.563714
32.556285 32.549083 32.542195 32.535601 32.529389 32.523535 32.518127 32.513138
32.508653 32.504644 32.501191 32.498266 32.495945 32.494197 32.493094 32.492604
32.492795 32.493632 32.495179 32.497398 32.500350 32.503995 32.508387 32.513488
32.519344 32.525915 32.533244 32.541290 32.550089 32.559600 32.569854 32.580807
32.592487 32.604849 32.617915 32.631641 32.646042 32.661074 32.676748 32.693020
32.709896 32.727330 32.745325 32.763837 32.782862 32.802357 32.822314 32.842691
32.863474 32.884624 32.906123 32.927932 32.950030 32.972379 32.994955 33.017721
33.040651 33.063707 33.086862 33.110081 33.133333
33.511111 33.480392 33.449718 33.419130 33.388675 33.358392 33.328330 33.298523
33.269024 33.239863 33.211093 33.182741 33.154860 33.127473 33.100636 33.074365
33.048716 33.023701 32.999378 32.975750 32.952878 32.930758 32.909451 32.888948
32.869309 32.850517 32.832634 32.815636 32.799582 32.784443 32.770279 32.757051
32.744818 32.733535 32.723260 32.713941 32.705633 32.698278 32.691929 32.686520
32.682103 32.678605 32.676076 32.674435 32.673731 32.673877 32.674918 32.676761
32.679449 32.682883 32.687104 32.692007 32.697629 32.703862 32.710741 32.718152
32.726128 32.734552 32.743453 32.752714 32.762360 32.772273 32.782474 32.792846
32.803408 32.814042 32.824766 32.835466 32.846154 32.856720 32.867176 32.877416
32.887449 32.897176 32.906605 32.915642 32.924294 32.932477 32.940196 32.947377
32.954022 32.960069 32.965520 32.970323 32.974479 32.977950 32.980735 32.982808
32.984169 32.984805 32.984716 32.983901 32.982360 32.980105 32.977137 32.973482
32.969137 32.964142 32.958495 32.952247 32.945395 32.938003 32.930066 32.921658
32.912774 32.903497 32.893822 32.883839 32.873541 32.863027 32.852287 32.841427
32.830435 32.819421 32.808371 32.797399 32.786489 32.775758 32.765185 32.754889
32.744848 32.735179 32.725859 32.717003 32.708585 32.700719 32.693374 32.686663
32.680552 32.675149 32.670419 32.666464 32.663246 32.660865 32.659276 32.658575
32.658717 32.659789 32.661743 32.664662 32.668495 32.673318 32.679078 32.685844
32.693562 32.702293 32.711981 32.722680 32.734334 32.746989 32.760588 32.775170
32.790676 32.807138 32.824498 32.842780 32.861925 32.881951 32.902799 32.924479
32.946933 32.970165 32.994116 33.018785 33.044114 33.070094 33.096669 33.123825
33.151506 33.179694 33.208332 33.237398 33.266838 33.296624 33.326703 33.357044
33.387597 33.418325 33.449181 33.480125 33.511111
33.888889 33.850518 33.812202 33.773997 33.735953 33.698132 33.660579 33.623357
33.586507 33.550095 33.514157 33.478760 33.443934 33.409749 33.376228 33.343442
33.311408 33.280199 33.249823 33.220355 33.191795 33.164218 33.137618 33.112069
33.087556 33.064154 33.041840 33.020687 33.000664 32.981845 32.964187 32.947764
32.932526 32.918544 32.905759 32.894240 32.883918 32.874863 32.866996 32.860382
32.854936 32.850720 32.847639 32.845754 32.844961 32.845317 32.846710 32.849195
32.852652 32.857134 32.862512 32.868835 32.875970 32.883961 32.892670 32.902138
32.912221 32.922958 32.934201 32.945985 32.958160 32.970758 32.983628 32.996797
33.010117 33.023611 33.037132 33.050700 33.064173 33.077567 33.090745 33.103721
33.116365 33.128687 33.140568 33.152014 33.162916 33.173278 33.183004 33.192096
33.200468 33.208124 33.214992 33.221072 33.226309 33.230702 33.234212 33.236837
33.238552 33.239359 33.239247 33.238217 33.236277 33.233425 33.229687 33.225062
33.219590 33.213269 33.206156 33.198249 33.189619 33.180262 33.170264 33.159621
33.148429 33.136684 33.124494 33.111852 33.098877 33.085559 33.072026 33.058265
33.044412 33.030450 33.016522 33.002607 32.988852 32.975233 32.961898 32.948821
32.936152 32.923859 32.912092 32.900816 32.890179 32.880142 32.870850 32.862262
32.854516 32.847568 32.841553 32.836421 32.832302 32.829143 32.827066 32.826016
32.826107 32.827281 32.829644 32.833136 32.837853 32.843733 32.850865 32.859183
32.868767 32.879550 32.891603 32.904856 32.919371 32.935078 32.952028 32.970152
32.989491 33.009973 33.031634 33.054399 33.078294 33.103247 33.129274 33.156301
33.184339 33.213313 33.243225 33.274002 33.305637 33.338059 33.371253 33.405150
33.439728 33.474919 33.510695 33.546988 33.583766 33.620962 33.658540 33.696434
33.734602 33.772983 33.811529 33.850181 33.888889
34.266667 34.220662 34.174724 34.128916 34.083309 34.037961 33.992946 33.948316
33.904150 33.860493 33.817426 33.774988 33.733262 33.692279 33.652125 33.612824
33.574463 33.537056 33.500693 33.465379 33.431204 33.398164 33.366349 33.335748
33.306448 33.278429 33.251778 33.226464 33.202575 33.180067 33.159028 33.139403
33.121280 33.104592 33.089425 33.075700 33.063503 33.052743 33.043503 33.035683
33.029361 33.024426 33.020955 33.018826 33.018112 33.018681 33.020603 33.023736
33.028145 33.033680 33.040404 33.048157 33.056997 33.066758 33.077494 33.089032
33.101422 33.114488 33.128272 33.142597 33.157501 33.172803 33.188539 33.204528
33.220798 33.237174 33.253679 33.270140 33.286577 33.302822 33.318893 33.334628
33.350042 33.364983 33.379462 33.393339 33.406622 33.419185 33.431033 33.442055
33.452253 33.461534 33.469899 33.477269 33.483648 33.488974 33.493248 33.496431
33.498522 33.499500 33.499366 33.498119 33.495759 33.492305 33.487756 33.482151
33.475490 33.467831 33.459172 33.449590 33.439082 33.427743 33.415568 33.402668
33.389038 33.374801 33.359951 33.344627 33.328816 33.312669 33.296173 33.279487
33.262594 33.245661 33.228667 33.211786 33.194993 33.178465 33.162172 33.146294
33.130798 33.115862 33.101449 33.087736 33.074682 33.062461 33.051026 33.040548
33.030975 33.022472 33.014984 33.008668 33.003464 32.999524 32.996782 32.995380
32.995251 32.996527 32.999136 33.003202 33.008649 33.015590 33.023947 33.033822
33.045135 33.057977 33.072264 33.088078 33.105334 33.124100 33.144290 33.165963
33.189032 33.213543 33.239409 33.266665 33.295223 33.325110 33.356237 33.388619
33.422168 33.456890 33.492697 33.529586 33.567469 33.606335 33.646098 33.686736
33.728166 33.770358 33.813231 33.856748 33.900829 33.945431 33.990475 34.035914
34.081672 34.127694 34.173908 34.220255 34.266667
34.644444 34.590828 34.537288 34.483905 34.430750 34.377907 34.325442 34.273443
34.221968 34.171111 34.120919 34.071491 34.022866 33.975144 33.928357 33.882606
33.837915 33.794384 33.752028 33.710951 33.671153 33.632741 33.595705 33.560150
33.526056 33.493528 33.462533 33.433176 33.405411 33.379344 33.354915 33.332227
33.311211 33.291966 33.274409 33.258640 33.244559 33.232266 33.221649 33.212801
33.205601 33.200138 33.196276 33.194103 33.193470 33.194460 33.196915 33.200911
33.206279 33.213093 33.221172 33.230584 33.241142 33.252908 33.265686 33.279533
33.294248 33.309882 33.326229 33.343335 33.360990 33.379236 33.397863 33.416905
33.436154 33.455640 33.475158 33.494732 33.514162 33.533470 33.552462 33.571156
33.589368 33.607112 33.624217 33.640693 33.656384 33.671296 33.685290 33.698371
33.710417 33.721430 33.731310 33.740056 33.747590 33.753910 33.758959 33.762737
33.765208 33.766371 33.766215 33.764738 33.761953 33.757859 33.752489 33.745844
33.737981 33.728898 33.718675 33.707310 33.694903 33.681452 33.667076 33.651771
33.635675 33.618780 33.601242 33.583050 33.564375 33.545201 33.525713 33.505891
33.485928 33.465803 33.445716 33.425640 33.405782 33.386110 33.366833 33.347916
33.329569 33.311750 33.294670 33.278281 33.262791 33.248148 33.234554 33.221952
33.210539 33.200252 33.191281 33.183557 33.177262 33.172323 33.168912 33.166950
33.166599 33.167777 33.170634 33.175083 33.181263 33.189085 33.198672 33.209934
33.222983 33.237723 33.254254 33.272478 33.292483 33.314169 33.337609 33.362703
33.389511 33.417931 33.448011 33.479649 33.512880 33.547601 33.583836 33.621481
33.660549 33.700937 33.742645 33.785572 33.829708 33.874952 33.921285 33.968606
34.016888 34.066031 34.115998 34.166694 34.218072 34.270040 34.322544 34.375494
34.428829 34.482464 34.536332 34.590349 34.644444
35.022222 34.961019 34.899906 34.838968 34.778299 34.717977 34.658103 34.598746
34.540011 34.481959 34.424700 34.368284 34.312825 34.258364 34.205017 34.152814
34.101873 34.052214 34.003956 33.957108 33.911789 33.867996 33.825850 33.785333
33.746566 33.709519 33.674312 33.640901 33.609406 33.579768 33.552106 33.526346
33.502605 33.480794 33.461029 33.443205 33.427435 33.413601 33.401812 33.391933
33.384071 33.378077 33.374052 33.371835 33.371523 33.372938 33.376173 33.381040
33.387625 33.395726 33.405426 33.416512 33.429059 33.442846 33.457943 33.474120
33.491439 33.509665 33.528855 33.548769 33.569456 33.590675 33.612469 33.634597
33.657095 33.679726 33.702519 33.725241 33.747917 33.770323 33.792476 33.814163
33.835398 33.855979 33.875916 33.895023 33.913308 33.930600 33.946904 33.962071
33.976103 33.988873 34.000380 34.010521 34.019296 34.026625 34.032507 34.036888
34.039768 34.041118 34.040940 34.039231 34.035992 34.031249 34.025001 34.017301
34.008149 33.997624 33.985723 33.972552 33.958108 33.942518 33.925777 33.908036
33.889288 33.869703 33.849270 33.828178 33.806413 33.784178 33.761457 33.738464
33.715180 33.691828 33.668384 33.645080 33.621885 33.599038 33.576501 33.554515
33.533037 33.512309 33.492281 33.473192 33.454987 33.437900 33.421871 33.407128
33.393603 33.381518 33.370799 33.361657 33.354014 33.348070 33.343740 33.341215
33.340404 33.341484 33.344360 33.349196 33.355892 33.364598 33.375211 33.387867
33.402458 33.419105 33.437698 33.458344 33.480929 33.505545 33.532078 33.560603
33.591005 33.623346 33.657508 33.693539 33.731320 33.770885 33.812117 33.855035
33.899521 33.945582 33.993101 34.042072 34.092379 34.144006 34.196836 34.250842
34.305910 34.362002 34.419007 34.476878 34.535504 34.594830 34.654751 34.715201
34.776078 34.837310 34.898800 34.960468 35.022222
35.400000 35.331241 35.262580 35.194123 35.125960 35.058203 34.990935 34.924271
34.858286 34.793100 34.728778 34.665444 34.603152 34.542030 34.482120 34.423553
34.366358 34.310669 34.256503 34.203994 34.153145 34.104092 34.056825 34.011479
33.968027 33.926607 33.887177 33.849872 33.814634 33.781598 33.750690 33.722043
33.695566 33.671389 33.649405 33.629742 33.612274 33.597127 33.584159 33.573490
33.564963 33.558692 33.554505 33.552511 33.552521 33.554640 33.558663 33.564690
33.572501 33.582190 33.593524 33.606591 33.621146 33.637269 33.654707 33.673532
33.693481 33.714622 33.736685 33.759728 33.783480 33.807991 33.832989 33.858517
33.884303 33.910384 33.936493 33.962659 33.988623 34.014409 34.039765 34.064712
34.089010 34.112675 34.135485 34.157448 34.178363 34.198236 34.216884 34.234311
34.250359 34.265030 34.278190 34.289841 34.299876 34.308296 34.315023 34.320058
34.323354 34.324909 34.324708 34.322750 34.319051 34.313608 34.306469 34.297632
34.287172 34.275089 34.261487 34.246364 34.229853 34.211949 34.192811 34.172433
34.150996 34.128494 34.105128 34.080887 34.055993 34.030430 34.004435 33.977989
33.951341 33.924466 33.897625 33.870786 33.844216 33.817879 33.792045 33.766671
33.742030 33.718070 33.695064 33.672954 33.652007 33.632159 33.613673 33.596474
33.580820 33.566629 33.554148 33.543289 33.534286 33.527048 33.521794 33.518427
33.517153 33.517867 33.520763 33.525731 33.532947 33.542297 33.553942 33.567763
33.583905 33.602245 33.622911 33.645778 33.670955 33.698316 33.727954 33.759739
33.793748 33.829850 33.868106 33.908384 33.950728 33.995004 34.041244 34.089313
34.139227 34.190852 34.244190 34.299107 34.355591 34.413511 34.472842 34.533454
34.595310 34.658283 34.722323 34.787307 34.853176 34.919808 34.987134 35.055038
35.123442 35.192233 35.261326 35.330612 35.400000
35.777778 35.701493 35.625323 35.549371 35.473761 35.398587 35.323978 35.250021
35.176848 35.104537 35.033224 34.962976 34.893934 34.826150 34.759771 34.694836
34.631493 34.569767 34.509809 34.451630 34.395381 34.341058 34.288812 34.238624
34.190646 34.144839 34.101356 34.060143 34.021348 33.984901 33.950949 33.919402
33.890406 33.863851 33.839882 33.818368 33.799452 33.782984 33.769101 33.757637
33.748723 33.742174 33.738117 33.736348 33.736989 33.739817 33.744948 33.752145
33.761515 33.772806 33.786117 33.801184 33.818098 33.836580 33.856717 33.878218
33.901160 33.925246 33.950546 33.976755 34.003934 34.031778 34.060338 34.089309
34.118735 34.148312 34.178078 34.207736 34.237315 34.266529 34.295399 34.323652
34.351306 34.378101 34.404050 34.428915 34.452702 34.475195 34.496400 34.516124
34.534369 34.550972 34.565933 34.579118 34.590527 34.600056 34.607705 34.613405
34.617154 34.618918 34.618695 34.616484 34.612285 34.606133 34.598026 34.588033
34.576153 34.562488 34.547036 34.529931 34.511170 34.490917 34.469167 34.446112
34.421746 34.396283 34.369716 34.342281 34.313965 34.285027 34.255447 34.225499
34.195160 34.164715 34.134135 34.103716 34.073420 34.043549 34.014061 33.985258
33.957091 33.929864 33.903517 33.878352 33.854302 33.831665 33.810363 33.790686
33.772550 33.756235 33.741649 33.729059 33.718365 33.709822 33.703324 33.699109
33.697064 33.697412 33.700034 33.705136 33.712592 33.722592 33.735004 33.750000
33.767444 33.787488 33.809993 33.835093 33.862646 33.892764 33.925306 33.960364
33.997794 34.037673 34.079852 34.124390 34.171139 34.220141 34.271245 34.324478
34.379690 34.436890 34.495929 34.556800 34.619356 34.683576 34.749314 34.816535
34.885095 34.954947 35.025950 35.098043 35.171089 35.245017 35.319695 35.395039
35.470923 35.547253 35.623909 35.700789 35.777778
36.155556 36.071784 35.988134 35.904735 35.821700 35.739165 35.657233 35.576047
35.495698 35.416336 35.338040 35.260963 35.185172 35.110826 35.037975 34.966782
34.897284 34.829644 34.763886 34.700174 34.638513 34.579070 34.521834 34.466971
34.414450 34.364440 34.316890 34.271966 34.229600 34.189957 34.152946 34.118732
34.087203 34.058521 34.032553 34.009458 33.989081 33.971578 33.956774 33.944817
33.935513 33.929005 33.925078 33.923869 33.925144 33.929032 33.935280 33.944011
33.954954 33.968223 33.983531 34.000984 34.020281 34.041518 34.064383 34.088962
34.114931 34.142369 34.170944 34.200725 34.231375 34.262954 34.295124 34.327936
34.361051 34.394513 34.427989 34.461513 34.494761 34.527760 34.560199 34.592097
34.623158 34.653397 34.682538 34.710588 34.737296 34.762665 34.786470 34.808712
34.829193 34.847913 34.864707 34.879573 34.892379 34.903123 34.911711 34.918140
34.922351 34.924344 34.924099 34.921614 34.916908 34.909981 34.900891 34.889636
34.876311 34.860917 34.843584 34.824311 34.803263 34.780439 34.756035 34.730048
34.702703 34.673994 34.644174 34.613231 34.581441 34.548790 34.515571 34.481764
34.447679 34.413290 34.378919 34.344531 34.310458 34.276657 34.243466 34.210832
34.179095 34.148194 34.118467 34.089843 34.062656 34.036827 34.012680 33.990129
33.969489 33.950662 33.933952 33.919253 33.906855 33.896644 33.888892 33.883478
33.880659 33.880305 33.882654 33.887570 33.895272 33.905618 33.918806 33.934690
33.953447 33.974927 33.999285 34.026367 34.056309 34.088953 34.124414 34.162530
34.203397 34.246852 34.292971 34.341587 34.392757 34.446317 34.502301 34.560546
34.621069 34.683705 34.748456 34.815158 34.883794 34.954203 35.026353 35.100085
35.175351 35.251995 35.329957 35.409083 35.489300 35.570459 35.652475 35.735203
35.818547 35.902370 35.986564 36.070998 36.155556
36.533333 36.442113 36.351030 36.260213 36.169809 36.079935 35.990746 35.902347
35.814899 35.728496 35.643304 35.559403 35.476964 35.396053 35.316845 35.239389
35.163865 35.090303 35.018887 34.949630 34.882716 34.818141 34.756088 34.696535
34.639664 34.585433 34.534025 34.485375 34.439666 34.396809 34.356987 34.320089
34.286294 34.255469 34.227789 34.203099 34.181568 34.163019 34.147618 34.135161
34.125810 34.119341 34.115906 34.115259 34.117547 34.122502 34.130262 34.140539
34.153464 34.168730 34.186456 34.206320 34.228433 34.252456 34.278489 34.306182
34.335625 34.366456 34.398755 34.432155 34.466724 34.502091 34.538314 34.575021
34.612261 34.649665 34.687273 34.724724 34.762048 34.798894 34.835287 34.870890
34.905721 34.939463 34.972127 35.003420 35.033348 35.061646 35.088315 35.113121
35.136064 35.156941 35.175751 35.192330 35.206673 35.218657 35.228277 35.235449
35.240170 35.242398 35.242130 35.239366 35.234106 35.226390 35.216221 35.203681
35.188772 35.171617 35.152218 35.130738 35.107177 35.081736 35.054413 35.025441
34.994818 34.962807 34.929401 34.894891 34.859267 34.822841 34.785598 34.747870
34.709634 34.671239 34.632654 34.594239 34.555955 34.518168 34.480831 34.444315
34.408560 34.373939 34.340382 34.308257 34.277486 34.248429 34.220997 34.195542
34.171963 34.150601 34.131345 34.114520 34.100008 34.088116 34.078715 34.072097
34.068124 34.067066 34.068780 34.073514 34.081117 34.091817 34.105456 34.122239
34.142004 34.164933 34.190857 34.219938 34.252003 34.287189 34.325321 34.366513
34.410589 34.457640 34.507486 34.560199 34.615598 34.673732 34.734421 34.797693
34.863368 34.931455 35.001774 35.074317 35.148905 35.225511 35.303958 35.384203
35.466074 35.549510 35.634342 35.720495 35.807805 35.896184 35.985470 36.075565
36.166314 36.257604 36.349289 36.441245 36.533333
36.911111 36.812487 36.714008 36.615829 36.518084 36.420937 36.324511 36.228977
36.134443 36.041089 35.949008 35.858386 35.769301 35.681943 35.596374 35.512788
35.431229 35.351893 35.274808 35.200172 35.127990 35.058464 34.991578 34.927535
34.866296 34.808064 34.752780 34.700642 34.651569 34.605760 34.563107 34.523807
34.487728 34.455062 34.425654 34.399692 34.376995 34.357745 34.341736 34.329146
34.319743 34.313698 34.310754 34.311075 34.314381 34.320826 34.330109 34.342374
34.357298 34.375016 34.395185 34.417929 34.442888 34.470175 34.499415 34.530709
34.563668 34.598384 34.634458 34.671969 34.710513 34.750156 34.790492 34.831577
34.873007 34.914825 34.956633 34.998466 35.039934 35.081063 35.121479 35.161198
35.199866 35.237493 35.273746 35.308630 35.341840 35.373377 35.402966 35.430607
35.456059 35.479319 35.500186 35.518656 35.534569 35.547920 35.558594 35.566588
35.571830 35.574318 35.574028 35.570958 35.565132 35.556551 35.545281 35.531327
35.514801 35.495707 35.474202 35.450289 35.424168 35.395839 35.365541 35.333274
35.299311 35.263649 35.226593 35.188135 35.148606 35.107996 35.066659 35.024575
34.982119 34.939263 34.896397 34.853484 34.810923 34.768669 34.727125 34.686236
34.646409 34.607575 34.570138 34.534022 34.499623 34.466851 34.436097 34.407258
34.380711 34.356344 34.334518 34.315111 34.298468 34.284454 34.273394 34.265147
34.260016 34.257849 34.258928 34.263094 34.270604 34.281292 34.295392 34.312729
34.333515 34.357569 34.385077 34.415854 34.450060 34.487507 34.528330 34.572338
34.619643 34.670049 34.723645 34.780234 34.839881 34.902390 34.967801 35.035918
35.106761 35.180133 35.256035 35.334270 35.414820 35.497489 35.582240 35.668882
35.757359 35.847483 35.939181 36.032271 36.126665 36.222184 36.318727 36.416122
36.514252 36.612954 36.712099 36.811531 36.911111
37.288889 37.182905 37.077084 36.971577 36.866558 36.762164 36.658579 36.555927
36.454398 36.354103 36.255239 36.157900 36.062288 35.968482 35.876687 35.786963
35.699521 35.614401 35.531816 35.451785 35.374524 35.300030 35.228519 35.159966
35.094587 35.032333 34.973421 34.917774 34.865610 34.816826 34.771636 34.729913
34.691866 34.657342 34.626545 34.599296 34.575794 34.555831 34.539601 34.526869
34.517823 34.512198 34.510176 34.511467 34.516243 34.524188 34.535463 34.549732
34.567143 34.587336 34.610451 34.636105 34.664427 34.695017 34.727989 34.762929
34.799940 34.838593 34.878977 34.920659 34.963712 35.007697 35.052677 35.098211
35.144350 35.190657 35.237170 35.283462 35.329561 35.375051 35.419951 35.463865
35.506803 35.548390 35.588630 35.627177 35.664030 35.698872 35.731699 35.762233
35.790466 35.816159 35.839305 35.859706 35.877357 35.892106 35.903948 35.912781
35.918601 35.921355 35.921043 35.917662 35.911214 35.901747 35.889264 35.873866
35.855556 35.834482 35.810649 35.784253 35.755299 35.724024 35.690434 35.654806
35.617142 35.577758 35.536652 35.494170 35.450305 35.405433 35.359539 35.313021
35.265858 35.218465 35.170812 35.123327 35.075969 35.029176 34.982896 34.937570
34.893133 34.850027 34.808175 34.768014 34.729454 34.692922 34.658319 34.626058
34.596026 34.568624 34.543726 34.521714 34.502451 34.486299 34.473111 34.463226
34.456485 34.453207 34.453222 34.456822 34.463831 34.474515 34.488690 34.506595
34.528039 34.553235 34.581985 34.614477 34.650508 34.690237 34.733458 34.780305
34.830567 34.884351 34.941447 35.001935 35.065602 35.132505 35.202431 35.275412
35.351234 35.429909 35.511223 35.595165 35.681523 35.770266 35.861186 35.954229
36.049191 36.146003 36.244463 36.344483 36.445869 36.548517 36.652237 36.756911
36.862356 36.968441 37.074991 37.181862 37.288889
37.666667 37.553376 37.440255 37.327485 37.215223 37.103659 36.992938 36.883259
36.774750 36.667620 36.561979 36.458044 36.355906 36.255787 36.157762 36.062055
35.968721 35.877988 35.789890 35.704657 35.622298 35.543049 35.466892 35.394064
35.324523 35.258504 35.195941 35.137066 35.081786 35.030332 34.982582 34.938765
34.898729 34.862700 34.830496 34.802338 34.778017 34.757744 34.741283 34.728838
34.720141 34.715391 34.714291 34.717028 34.723280 34.733222 34.746505 34.763295
34.783215 34.806420 34.832510 34.861628 34.893351 34.927808 34.964560 35.003721
35.044836 35.088006 35.132765 35.179197 35.226830 35.275735 35.325435 35.375988
35.426918 35.478270 35.529574 35.580863 35.631680 35.682046 35.731519 35.780113
35.827407 35.873407 35.917718 35.960340 36.000912 36.039429 36.075565 36.109312
36.140388 36.168782 36.194257 36.216802 36.236230 36.252531 36.265567 36.275333
36.281744 36.284796 36.284461 36.280738 36.273654 36.263209 36.249486 36.232490
36.212356 36.189090 36.162879 36.133732 36.101883 36.067342 36.030389 35.991030
35.949589 35.906070 35.860831 35.813872 35.765585 35.715964 35.665427 35.613959
35.562003 35.509533 35.457008 35.404393 35.352158 35.300257 35.249164 35.198822
35.149707 35.101748 35.055418 35.010631 34.967855 34.926990 34.888490 34.852243
34.818688 34.787699 34.759698 34.734544 34.712640 34.693833 34.678501 34.666480
34.658124 34.653258 34.652209 34.654791 34.661305 34.671557 34.685818 34.703885
34.726003 34.751962 34.781975 34.815828 34.853706 34.895388 34.941031 34.990410
35.043655 35.100537 35.161157 35.225286 35.292997 35.364060 35.438523 35.516154
35.596977 35.680761 35.767504 35.856979 35.949160 36.043821 36.140916 36.240223
36.341675 36.445053 36.550271 36.657116 36.765485 36.875169 36.986049 37.097924
37.210659 37.324061 37.437982 37.552238 37.666667
38.044444 37.923898 37.803539 37.683545 37.564116 37.445412 37.327644 37.210958
37.095573 36.981619 36.869322 36.758794 36.650268 36.543834 36.439734 36.338036
36.238984 36.142626 36.049209 35.958756 35.871518 35.787491 35.706929 35.629802
35.556363 35.486554 35.420627 35.358498 35.300416 35.246267 35.196297 35.150361
35.108703 35.071147 35.037930 35.008845 34.984124 34.963528 34.947282 34.935115
34.927243 34.923364 34.923685 34.927873 34.936124 34.948076 34.963913 34.983244
35.006241 35.032487 35.062139 35.094757 35.130483 35.168855 35.210001 35.253439
35.299282 35.347035 35.396794 35.448052 35.500890 35.554797 35.609837 35.665496
35.721826 35.778315 35.835003 35.891386 35.947491 36.002830 36.057419 36.110790
36.162948 36.213454 36.262305 36.309092 36.353808 36.396081 36.435899 36.472934