# vtk DataFile Version 3.0
Steady-state temperature (Jacobi)
ASCII
DATASET STRUCTURED_POINTS
DIMENSIONS 181 181 1
ORIGIN 0.0 0.0 0.0
SPACING 0.05 0.05 1.0
POINT_DATA 32761
SCALARS Temperature float 1
LOOKUP_TABLE default
32.000000 32.000000 32.000000 32.000000 32.000000 32.000000 32.000000 32.000000
32.000000 32.000000 32.000000 32.000000 32.000000 32.000000 32.000000 32.000000
32.000000 32.000000 32.000000 32.000000 32.000000 32.000000 32.000000 32.000000
32.000000 32.000000 32.000000 32.000000 32.000000 32.000000 32.000000 32.000000
32.000000 32.000000 32.000000 32.000000 32.000000 32.000000 32.000000 32.000000
32.000000 32.000000 32.000000 32.000000 32.000000 32.000000 32.000000 32.000000
32.000000 32.000000 32.000000 32.000000 32.000000 32.000000 32.000000 32.000000
32.000000 32.000000 32.000000 32.000000 32.000000 32.000000 32.000000 32.000000
32.000000 32.000000 32.000000 32.000000 32.000000 32.000000 32.000000 32.000000
32.000000 32.000000 32.000000 32.000000 32.000000 32.000000 32.000000 32.000000
32.000000 32.000000 32.000000 32.000000 32.000000 32.000000 32.000000 32.000000
32.000000 32.000000 32.000000 32.000000 32.000000 32.000000 32.000000 32.000000
32.000000 32.000000 32.000000 32.000000 32.000000 32.000000 32.000000 32.000000
32.000000 32.000000 32.000000 32.000000 32.000000 32.000000 32.000000 32.000000
32.000000 32.000000 32.000000 32.000000 32.000000 32.000000 32.000000 32.000000
32.000000 32.000000 32.000000 32.000000 32.000000 32.000000 32.000000 32.000000
32.000000 32.000000 32.000000 32.000000 32.000000 32.000000 32.000000 32.000000
32.000000 32.000000 32.000000 32.000000 32.000000 32.000000 32.000000 32.000000
32.000000 32.000000 32.000000 32.000000 32.000000 32.000000 32.000000 32.000000
32.000000 32.000000 32.000000 32.000000 32.000000 32.000000 32.000000 32.000000
32.000000 32.000000 32.000000 32.000000 32.000000 32.000000 32.000000 32.000000
32.000000 32.000000 32.000000 32.000000 32.000000 32.000000 32.000000 32.000000
32.000000 32.000000 32.000000 32.000000 32.000000
32.377778 32.373134 32.368500 32.363887 32.359304 32.354761 32.350268 32.345837
32.341473 32.337191 32.332996 32.328902 32.324912 32.321041 32.317292 32.313679
32.310204 32.306882 32.303713 32.300712 32.297877 32.295224 32.292751 32.290470
32.288380 32.286494 32.284808 32.283334 32.282067 32.281019 32.280184 32.279573
32.279178 32.279010 32.279059 32.279336 32.279828 32.280547 32.281478 32.282632
32.283992 32.285569 32.287344 32.289327 32.291499 32.293866 32.296410 32.299137
32.302026 32.305082 32.308282 32.311633 32.315109 32.318715 32.322426 32.326245
32.330148 32.334135 32.338182 32.342289 32.346431 32.350608 32.354793 32.358987
32.363163 32.367321 32.371435 32.375503 32.379501 32.383427 32.387258 32.390989
32.394600 32.398088 32.401432 32.404628 32.407659 32.410521 32.413197 32.415685
32.417970 32.420048 32.421909 32.423550 32.424962 32.426141 32.427082 32.427784
32.428241 32.428454 32.428420 32.428141 32.427616 32.426848 32.425839 32.424591
32.423112 32.421402 32.419472 32.417323 32.414967 32.412408 32.409659 32.406723
32.403618 32.400346 32.396926 32.393360 32.389670 32.385858 32.381946 32.377937
32.373855 32.369701 32.365501 32.361255 32.356989 32.352705 32.348427 32.344158
32.339921 32.335719 32.331575 32.327490 32.323488 32.319569 32.315757 32.312050
32.308472 32.305019 32.301716 32.298557 32.295565 32.292734 32.290087 32.287616
32.285341 32.283256 32.281380 32.279703 32.278243 32.276992 32.275964 32.275151
32.274566 32.274199 32.274062 32.274145 32.274458 32.274990 32.275750 32.276726
32.277925 32.279335 32.280963 32.282795 32.284836 32.287072 32.289508 32.292128
32.294936 32.297918 32.301074 32.304390 32.307865 32.311486 32.315251 32.319146
32.323168 32.327303 32.331547 32.335887 32.340317 32.344824 32.349402 32.354039
32.358727 32.363454 32.368212 32.372990 32.377778
32.755556 32.746273 32.737012 32.727790 32.718630 32.709549 32.700571 32.691711
32.682993 32.674432 32.666052 32.657864 32.649896 32.642155 32.634670 32.627445
32.620509 32.613866 32.607542 32.601540 32.595887 32.590582 32.585651 32.581091
32.576930 32.573158 32.569805 32.566858 32.564345 32.562251 32.560602 32.559382
32.558615 32.558281 32.558403 32.558959 32.559970 32.561409 32.563299 32.565609
32.568358 32.571514 32.575095 32.579064 32.583438 32.588178 32.593298 32.598756
32.604566 32.610683 32.617117 32.623823 32.630809 32.638027 32.645484 32.653129
32.660968 32.668951 32.677078 32.685300 32.693618 32.701979 32.710383 32.718778
32.727163 32.735487 32.743746 32.751891 32.759917 32.767777 32.775465 32.782937
32.790185 32.797168 32.803880 32.810280 32.816363 32.822093 32.827464 32.832445
32.837030 32.841193 32.844928 32.848214 32.851046 32.853408 32.855297 32.856701
32.857619 32.858045 32.857978 32.857418 32.856366 32.854828 32.852804 32.850306
32.847337 32.843914 32.840039 32.835737 32.831010 32.825885 32.820369 32.814491
32.808259 32.801708 32.794843 32.787705 32.780298 32.772666 32.764815 32.756789
32.748595 32.740279 32.731846 32.723347 32.714783 32.706206 32.697618 32.689071
32.680565 32.672151 32.663830 32.655652 32.647616 32.639771 32.632113 32.624692
32.617502 32.610591 32.603951 32.597627 32.591611 32.585945 32.580618 32.575672
32.571093 32.566920 32.563137 32.559780 32.556832 32.554326 32.552244 32.550615
32.549419 32.548684 32.548386 32.548550 32.549153 32.550215 32.551713 32.553663
32.556041 32.558861 32.562097 32.565760 32.569823 32.574296 32.579150 32.584391
32.589991 32.595954 32.602251 32.608882 32.615819 32.623061 32.630578 32.638367
32.646399 32.654668 32.663146 32.671823 32.680674 32.689686 32.698835 32.708105
32.717474 32.726925 32.736434 32.745985 32.755556
33.133333 33.119424 33.105544 33.091727 33.077998 33.064394 33.050938 33.037666
33.024600 33.011777 32.999217 32.986958 32.975014 32.963427 32.952208 32.941397
32.931002 32.921065 32.911589 32.902617 32.894147 32.886221 32.878835 32.872031
32.865799 32.860180 32.855161 32.850782 32.847024 32.843926 32.841467 32.839683
32.838547 32.838094 32.838294 32.839179 32.840712 32.842927 32.845780 32.849302
32.853446 32.858240 32.863632 32.869648 32.876232 32.883406 32.891111 32.899365
32.908106 32.917349 32.927029 32.937158 32.947665 32.958563 32.969778 32.981318
32.993108 33.005153 33.017376 33.029781 33.042290 33.054902 33.067540 33.080203
33.092813 33.105366 33.117787 33.130069 33.142140 33.153992 33.165555 33.176820
33.187721 33.198250 33.208343 33.217992 33.227141 33.235780 33.243859 33.251368
33.258264 33.264540 33.270158 33.275111 33.279371 33.282932 33.285773 33.287891
33.289272 33.289914 33.289814 33.288971 33.287389 33.285069 33.282026 33.278261
33.273796 33.268636 33.262810 33.256324 33.249215 33.241490 33.233194 33.224334
33.214962 33.205086 33.194762 33.184000 33.172862 33.161356 33.149548 33.137448
33.125125 33.112586 33.099906 33.087088 33.074210 33.061276 33.048361 33.035469
33.022678 33.009986 32.997473 32.985134 32.973048 32.961209 32.949692 32.938491
32.927677 32.917240 32.907252 32.897699 32.888647 32.880082 32.872068 32.864584
32.857692 32.851370 32.845674 32.840579 32.836137 32.832321 32.829180 32.826682
32.824871 32.823715 32.823253 32.823450 32.824341 32.825888 32.828122 32.831004
32.834559 32.838748 32.843591 32.849047 32.855132 32.861805 32.869077 32.876905
32.885297 32.894210 32.903647 32.913566 32.923964 32.934800 32.946068 32.957727
32.969767 32.982148 32.994856 33.007852 33.021119 33.034619 33.048332 33.062221
33.076264 33.090425 33.104678 33.118990 33.133333
33.511111 33.492590 33.474111 33.455711 33.437435 33.419318 33.401407 33.383733
33.366345 33.349270 33.332559 33.316234 33.300348 33.284920 33.270003 33.255610
33.241796 33.228568 33.215983 33.204043 33.192802 33.182259 33.172469 33.163423
33.155175 33.147710 33.141084 33.135275 33.130335 33.126237 33.123033 33.120689
33.119254 33.118688 33.119038 33.120258 33.122392 33.125388 33.129286 33.134029
33.139653 33.146094 33.153387 33.161461 33.170347 33.179968 33.190352 33.201417
33.213186 33.225572 33.238596 33.252165 33.266296 33.280893 33.295968 33.311423
33.327266 33.343396 33.359817 33.376427 33.393228 33.410115 33.427088 33.444042
33.460974 33.477781 33.494457 33.510902 33.527106 33.542975 33.558496 33.573579
33.588212 33.602308 33.615856 33.628776 33.641055 33.652622 33.663465 33.673520
33.682775 33.691178 33.698718 33.705351 33.711068 33.715837 33.719650 33.722486
33.724340 33.725201 33.725067 33.723939 33.721816 33.718712 33.714628 33.709588
33.703597 33.696689 33.688871 33.680188 33.670648 33.660307 33.649174 33.637313
33.624735 33.611513 33.597658 33.583251 33.568302 33.552898 33.537050 33.520851
33.504310 33.487524 33.470501 33.453341 33.436052 33.418735 33.401395 33.384134
33.366956 33.349964 33.333155 33.316635 33.300397 33.284543 33.269066 33.254064
33.239525 33.225546 33.212110 33.199311 33.187128 33.175649 33.164852 33.154818
33.145521 33.137039 33.129341 33.122499 33.116477 33.111344 33.107061 33.103688
33.101184 33.099603 33.098902 33.099128 33.100235 33.102265 33.105167 33.108979
33.113648 33.119205 33.125596 33.132844 33.140896 33.149768 33.159406 33.169821
33.180957 33.192819 33.205352 33.218556 33.232374 33.246802 33.261784 33.277310
33.293325 33.309813 33.326721 33.344030 33.361686 33.379666 33.397920 33.416418
33.435114 33.453973 33.472951 33.492011 33.511111
33.888889 33.865779 33.842719 33.819763 33.796956 33.774356 33.752005 33.729961
33.708263 33.686972 33.666119 33.645770 33.625950 33.606726 33.588118 33.570193
33.552964 33.536501 33.520811 33.505963 33.491956 33.478860 33.466668 33.455449
33.445188 33.435954 33.427724 33.420565 33.414446 33.409434 33.405489 33.402676
33.400948 33.400365 33.400873 33.402530 33.405273 33.409156 33.414110 33.420184
33.427300 33.435505 33.444713 33.454965 33.466169 33.478362 33.491444 33.505447
33.520264 33.535925 33.552315 33.569458 33.587237 33.605668 33.624630 33.644136
33.664060 33.684411 33.705061 33.726012 33.747136 33.768433 33.789772 33.811149
33.832436 33.853625 33.874589 33.895318 33.915690 33.935691 33.955204 33.974213
33.992608 34.010374 34.027405 34.043687 34.059124 34.073700 34.087331 34.100002
34.111638 34.122227 34.131707 34.140065 34.147253 34.153263 34.158058 34.161632
34.163963 34.165049 34.164882 34.163462 34.160795 34.156885 34.151752 34.145403
34.137873 34.129170 34.119344 34.108404 34.096413 34.083384 34.069390 34.054446
34.038636 34.021977 34.004562 33.986407 33.967617 33.948206 33.928286 33.907871
33.887079 33.865923 33.844525 33.822896 33.801162 33.779332 33.757533 33.735771
33.714174 33.692745 33.671612 33.650772 33.630354 33.610350 33.590885 33.571947
33.553659 33.536003 33.519098 33.502922 33.487587 33.473066 33.459468 33.446760
33.435043 33.424280 33.414566 33.405860 33.398248 33.391685 33.386251 33.381895
33.378690 33.376583 33.375637 33.375795 33.377115 33.379534 33.383103 33.387757
33.393539 33.400381 33.408319 33.417283 33.427300 33.438301 33.450304 33.463239
33.477117 33.491868 33.507495 33.523928 33.541164 33.559133 33.577824 33.597170
33.617154 33.637708 33.658809 33.680392 33.702428 33.724855 33.747637 33.770715
33.794049 33.817580 33.841266 33.865052 33.888889
34.266667 34.238994 34.211383 34.183893 34.156590 34.129526 34.102773 34.076376
34.050411 34.024917 33.999972 33.975610 33.951910 33.928899 33.906659 33.885209
33.864631 33.844939 33.826215 33.808463 33.791767 33.776123 33.761613 33.748226
33.736043 33.725042 33.715305 33.706800 33.699607 33.693685 33.689111 33.685834
33.683930 33.683337 33.684127 33.686229 33.689712 33.694494 33.700639 33.708059
33.716810 33.726794 33.738064 33.750514 33.764189 33.778975 33.794912 33.811877
33.829906 33.848867 33.868790 33.889537 33.911131 33.933429 33.956448 33.980041
34.004217 34.028826 34.053874 34.079206 34.104822 34.130568 34.156440 34.182281
34.208085 34.233697 34.259106 34.284162 34.308850 34.333025 34.356670 34.379646
34.401936 34.423408 34.444044 34.463723 34.482427 34.500045 34.516560 34.531875
34.545973 34.558772 34.570257 34.580360 34.589070 34.596334 34.602144 34.606466
34.609292 34.610606 34.610405 34.608690 34.605461 34.600737 34.594522 34.586850
34.577730 34.567214 34.555312 34.542092 34.527569 34.511823 34.494873 34.476814
34.457663 34.437530 34.416434 34.394495 34.371731 34.348273 34.324140 34.299468
34.274276 34.248707 34.222778 34.196637 34.170298 34.143912 34.117489 34.091184
34.065001 34.039096 34.013468 33.988273 33.963503 33.939313 33.915691 33.892785
33.870579 33.849218 33.828677 33.809097 33.790448 33.772862 33.756304 33.740901
33.726609 33.713548 33.701670 33.691085 33.681739 33.673734 33.667012 33.661663
33.657627 33.654985 33.653670 33.653754 33.655167 33.657972 33.662095 33.667589
33.674378 33.682504 33.691890 33.702568 33.714459 33.727587 33.741870 33.757323
33.773865 33.791502 33.810150 33.829809 33.850396 33.871901 33.894241 33.917401
33.941298 33.965909 33.991154 34.017001 34.043373 34.070233 34.097505 34.125145
34.153083 34.181268 34.209631 34.238119 34.266667
34.644444 34.612242 34.580110 34.548124 34.516349 34.484865 34.453731 34.423030
34.392816 34.363175 34.334152 34.305838 34.278269 34.251539 34.225677 34.200777
34.176858 34.154018 34.132266 34.111700 34.092320 34.074224 34.057402 34.041950
34.027849 34.015194 34.003955 33.994225 33.985963 33.979259 33.974062 33.970459
33.968386 33.967928 33.969009 33.971710 33.975944 33.981785 33.989137 33.998069
34.008472 34.020410 34.033764 34.048592 34.064762 34.082328 34.101148 34.121269
34.142539 34.164998 34.188488 34.213039 34.238486 34.264854 34.291971 34.319854
34.348327 34.377399 34.406891 34.436806 34.466964 34.497360 34.527814 34.558317
34.588688 34.618915 34.648821 34.678387 34.707442 34.735966 34.763792 34.790900
34.817131 34.842463 34.866748 34.889963 34.911974 34.932757 34.952193 34.970258
34.986850 35.001948 35.015465 35.027383 35.037634 35.046205 35.053044 35.058143
35.061471 35.063023 35.062789 35.060768 35.056971 35.051402 35.044090 35.035045
35.024315 35.011915 34.997912 34.982323 34.965235 34.946667 34.926723 34.905426
34.882893 34.859149 34.834327 34.808451 34.781666 34.753997 34.725600 34.696497
34.666853 34.636689 34.606177 34.575334 34.544337 34.513200 34.482103 34.451054
34.420236 34.389652 34.359483 34.329726 34.300563 34.271982 34.244162 34.217085
34.190924 34.165656 34.141446 34.118265 34.096270 34.075426 34.055883 34.037596
34.020707 34.005166 33.991104 33.978464 33.967369 33.957753 33.949729 33.943228
33.938349 33.935018 33.933325 33.933190 33.934691 33.937744 33.942417 33.948621
33.956413 33.965702 33.976533 33.988812 34.002574 34.017723 34.034283 34.052157
34.071359 34.091792 34.113458 34.136260 34.160192 34.185158 34.211141 34.238045
34.265847 34.294453 34.323829 34.353885 34.384578 34.415821 34.447565 34.479724
34.512244 34.545043 34.578060 34.611216 34.644444
35.022222 34.985527 34.948915 34.912464 34.876265 34.840387 34.804926 34.769944
34.735541 34.701771 34.668738 34.636487 34.605125 34.574689 34.545287 34.516946
34.489778 34.463798 34.439118 34.415744 34.393789 34.373246 34.354228 34.336717
34.320825 34.306521 34.293915 34.282966 34.273779 34.266301 34.260635 34.256714
34.254637 34.254324 34.255870 34.259181 34.264348 34.271264 34.280014 34.290477
34.302732 34.316646 34.332291 34.349522 34.368404 34.388779 34.410704 34.434013
34.458753 34.484748 34.512037 34.540434 34.569971 34.600455 34.631908 34.664131
34.697139 34.730727 34.764903 34.799458 34.834393 34.869498 34.904767 34.939991
34.975157 35.010059 35.044680 35.078817 35.112449 35.145381 35.177588 35.208884
35.239242 35.268488 35.296592 35.323394 35.348865 35.372860 35.395351 35.416209
35.435409 35.452840 35.468482 35.482243 35.494106 35.504003 35.511918 35.517807
35.521661 35.523455 35.523188 35.520858 35.516468 35.510042 35.501586 35.491147
35.478737 35.464425 35.448228 35.430235 35.410468 35.389037 35.365965 35.341383
35.315315 35.287909 35.259191 35.229323 35.198333 35.166395 35.133536 35.099941
35.065637 35.030816 34.995502 34.959896 34.924015 34.888067 34.852063 34.816212
34.780522 34.745203 34.710254 34.675884 34.642086 34.609066 34.576809 34.545515
34.515163 34.485946 34.457835 34.431015 34.405448 34.381312 34.358561 34.337362
34.317660 34.299613 34.283160 34.268444 34.255398 34.244154 34.234637 34.226968
34.221063 34.217033 34.214788 34.214425 34.215849 34.219143 34.224210 34.231120
34.239769 34.250216 34.262356 34.276233 34.291738 34.308906 34.327625 34.347917
34.369670 34.392895 34.417478 34.443418 34.470604 34.499022 34.528563 34.559204
34.590835 34.623423 34.656863 34.691111 34.726065 34.761672 34.797833 34.834489
34.871544 34.908930 34.946556 34.984349 35.022222
35.400000 35.358855 35.317802 35.276938 35.236347 35.196134 35.156373 35.117175
35.078606 35.040780 35.003755 34.967649 34.932509 34.898456 34.865528 34.833846
34.803437 34.774426 34.746826 34.720764 34.696239 34.673379 34.652171 34.632740
34.615061 34.599258 34.585292 34.573283 34.563179 34.555097 34.548971 34.544913
34.542841 34.542866 34.544889 34.549015 34.555131 34.563336 34.573502 34.585720
34.599849 34.615973 34.633936 34.653814 34.675437 34.698872 34.723939 34.750694
34.778944 34.808738 34.839872 34.872384 34.906061 34.940933 34.976777 35.013615
35.051217 35.089595 35.128517 35.167985 35.207763 35.247846 35.287998 35.328206
35.368237 35.408070 35.447476 35.486430 35.524709 35.562284 35.598939 35.634644
35.669195 35.702558 35.734543 35.765117 35.794106 35.821477 35.847073 35.870866
35.892718 35.912603 35.930406 35.946104 35.959607 35.970897 35.979909 35.986628
35.991017 35.993068 35.992767 35.990114 35.985123 35.977798 35.968179 35.956278
35.942160 35.925842 35.907414 35.886898 35.864408 35.839971 35.813721 35.785688
35.756029 35.724775 35.692100 35.658036 35.622775 35.586348 35.548959 35.510640
35.471604 35.431882 35.391695 35.351070 35.310236 35.269212 35.228233 35.187312
35.146684 35.106357 35.066566 35.027308 34.988817 34.951083 34.914335 34.878552
34.843958 34.810524 34.778465 34.747743 34.718563 34.690878 34.664883 34.640521
34.617975 34.597181 34.578309 34.561284 34.546265 34.533169 34.522140 34.513089
34.506145 34.501211 34.498403 34.497618 34.498956 34.502310 34.507764 34.515207
34.524709 34.536154 34.549598 34.564922 34.582168 34.601214 34.622089 34.644669
34.668970 34.694866 34.722361 34.751329 34.781762 34.813534 34.846624 34.880909
34.916357 34.952846 34.990334 35.028701 35.067896 35.107802 35.148357 35.189450
35.231011 35.272933 35.315137 35.357521 35.400000
35.777778 35.732230 35.686789 35.641550 35.596629 35.552113 35.508122 35.464735
35.422078 35.380220 35.339290 35.299348 35.260526 35.222872 35.186523 35.151512
35.117980 35.085947 35.055555 35.026811 34.999856 34.974684 34.951436 34.930092
34.910789 34.893492 34.878339 34.865278 34.854443 34.845766 34.839377 34.835192
34.833337 34.833712 34.836435 34.841391 34.848691 34.858203 34.870032 34.884028
34.900290 34.918651 34.939200 34.961756 34.986399 35.012933 35.041426 35.071671
35.103725 35.137368 35.172646 35.209328 35.247450 35.286769 35.327313 35.368829
35.411335 35.454573 35.498549 35.543003 35.587930 35.633067 35.678403 35.723675
35.768863 35.813707 35.858182 35.902034 35.945231 35.987527 36.028888 36.069078
36.108060 36.145614 36.181700 36.216114 36.248818 36.279627 36.308504 36.335286
36.359938 36.382322 36.402407 36.420079 36.435314 36.448025 36.458194 36.465761
36.470716 36.473028 36.472694 36.469713 36.464088 36.455849 36.445005 36.431616
36.415697 36.397337 36.376557 36.353473 36.328112 36.300613 36.271010 36.239467
36.206017 36.170848 36.133995 36.095664 36.055891 36.014899 35.972724 35.929600
35.885563 35.840857 35.795515 35.749791 35.703710 35.657532 35.611277 35.565209
35.519339 35.473930 35.428988 35.384773 35.341280 35.298767 35.257220 35.216888
35.177748 35.140043 35.103737 35.069063 35.035976 35.004699 34.975174 34.947611
34.921944 34.898370 34.876811 34.857450 34.840201 34.825230 34.812443 34.801992
34.793772 34.787921 34.784326 34.783108 34.784149 34.787553 34.793196 34.801166
34.811334 34.823771 34.838346 34.855112 34.873936 34.894857 34.917737 34.942601
34.969309 34.997873 35.028151 35.060141 35.093703 35.128819 35.165351 35.203270
35.242437 35.282812 35.324260 35.366728 35.410085 35.454266 35.499145 35.544648
35.590654 35.637077 35.683804 35.730740 35.777778
36.155556 36.105660 36.055877 36.006328 35.957115 35.908368 35.860181 35.812687
35.765970 35.720170 35.675358 35.631681 35.589196 35.548053 35.508297 35.470081
35.433437 35.398518 35.365343 35.334065 35.304687 35.277365 35.252083 35.228997
35.208077 35.189473 35.173140 35.159226 35.147667 35.138608 35.131967 35.127883
35.126257 35.127222 35.130661 35.136700 35.145203 35.156289 35.169805 35.185859
35.204281 35.225171 35.248340 35.273878 35.301580 35.331525 35.363492 35.397549
35.433460 35.471281 35.510762 35.551950 35.594581 35.638689 35.684001 35.730541
35.778026 35.826468 35.875579 35.925360 35.975521 36.026051 36.076658 36.127325
36.177760 36.227938 36.277573 36.326631 36.374836 36.422149 36.468303 36.513255
36.556754 36.598755 36.639021 36.677509 36.714003 36.748458 36.780681 36.810632
36.838142 36.863175 36.885589 36.905354 36.922357 36.936575 36.947925 36.956392
36.961925 36.964517 36.964149 36.960822 36.954552 36.945346 36.933253 36.918289
36.900535 36.880013 36.856835 36.831031 36.802741 36.772002 36.738981 36.703717
36.666405 36.627086 36.585976 36.543119 36.498752 36.452917 36.405867 36.357644
36.308515 36.258518 36.207930 36.156784 36.105366 36.053704 36.002085 35.950532
35.899333 35.848502 35.798328 35.748812 35.700241 35.652606 35.606189 35.560968
35.517218 35.474905 35.434293 35.395338 35.358293 35.323100 35.289999 35.258923
35.230096 35.203438 35.179160 35.157170 35.137663 35.120538 35.105970 35.093851
35.084338 35.077314 35.072919 35.071027 35.071761 35.074987 35.080811 35.089093
35.099921 35.113150 35.128850 35.146873 35.167271 35.189893 35.214773 35.241760
35.270871 35.301954 35.335009 35.369885 35.406567 35.444904 35.484867 35.526305
35.569178 35.613337 35.658727 35.705203 35.752699 35.801074 35.850249 35.900089
35.950505 36.001366 36.052575 36.104007 36.155556
36.533333 36.479145 36.425085 36.371272 36.317843 36.264905 36.212604 36.161037
36.110353 36.060639 36.012051 35.964661 35.918629 35.874015 35.830983 35.789575
35.749961 35.712167 35.676363 35.642560 35.610928 35.581462 35.554330 35.529510
35.507169 35.487265 35.469964 35.455205 35.443149 35.433717 35.427064 35.423093
35.421952 35.423523 35.427949 35.435091 35.445083 35.457768 35.473270 35.491411
35.512308 35.535761 35.561877 35.590438 35.621538 35.654942 35.690731 35.728655
35.768781 35.810842 35.854894 35.900655 35.948169 35.997141 36.047600 36.099244
36.152087 36.205820 36.260446 36.315648 36.371417 36.427436 36.483685 36.539845
36.595889 36.651501 36.706645 36.761012 36.814559 36.866988 36.918251 36.968063
37.016374 37.062914 37.107633 37.150281 37.190808 37.228988 37.264772 37.297962
37.328513 37.356253 37.381146 37.403050 37.421935 37.437694 37.450302 37.459689
37.465840 37.468717 37.468317 37.464637 37.457683 37.447489 37.434071 37.417498
37.397794 37.375064 37.349338 37.320756 37.289355 37.255306 37.218651 37.179589
37.138169 37.094614 37.048976 37.001502 36.952244 36.901469 36.849229 36.795807
36.741251 36.685861 36.629677 36.573010 36.515894 36.458647 36.401296 36.344160
36.287259 36.230911 36.175127 36.120222 36.066195 36.013357 35.961693 35.911507
35.862773 35.815784 35.770500 35.727202 35.685839 35.646677 35.609652 35.575014
35.542687 35.512906 35.485581 35.460929 35.438849 35.419542 35.402892 35.389083
35.377991 35.369776 35.364309 35.361729 35.361898 35.364937 35.370699 35.379287
35.390547 35.404563 35.421175 35.440450 35.462223 35.486542 35.513240 35.542345
35.573690 35.607285 35.642963 35.680716 35.720377 35.761923 35.805187 35.850132
35.896593 35.944517 35.993743 36.044205 36.095746 36.148285 36.201672 36.255815
36.310566 36.365825 36.421450 36.477331 36.533333
36.911111 36.852695 36.794414 36.736412 36.678812 36.621769 36.565395 36.509850
36.455233 36.401713 36.349375 36.298392 36.248835 36.200883 36.154591 36.110139
36.067568 36.027060 35.988638 35.952486 35.918608 35.887189 35.858214 35.831866
35.808111 35.787129 35.768867 35.753502 35.740958 35.731408 35.724756 35.721168
35.720527 35.722991 35.728422 35.736970 35.748475 35.763077 35.780595 35.801158
35.824564 35.850931 35.880035 35.911982 35.946528 35.983767 36.023436 36.065613
36.110018 36.156716 36.205410 36.256150 36.308625 36.362871 36.418565 36.475726
36.534023 36.593461 36.653701 36.714736 36.776220 36.838135 36.900135 36.962190
37.023954 37.085389 37.146155 37.206204 37.265206 37.323109 37.379592 37.434599
37.487827 37.539218 37.588489 37.635580 37.680233 37.722390 37.761818 37.798465
37.832128 37.862760 37.890189 37.914378 37.935189 37.952593 37.966491 37.976862
37.983645 37.986830 37.986395 37.982342 37.974688 37.963444 37.948669 37.930384
37.908684 37.883601 37.855269 37.823727 37.789143 37.751564 37.711193 37.668081
37.622461 37.574387 37.524121 37.471718 37.417464 37.361414 37.303872 37.244895
37.184801 37.123642 37.061750 36.999171 36.936247 36.873015 36.809821 36.746696
36.683986 36.621710 36.560216 36.499508 36.439930 36.381474 36.324477 36.268917
36.215119 36.163050 36.113021 36.064985 36.019239 35.975722 35.934715 35.896141
35.860266 35.826998 35.796585 35.768922 35.744235 35.722410 35.703651 35.687832
35.675138 35.665429 35.658872 35.655317 35.654908 35.657488 35.663178 35.671816
35.683502 35.698065 35.715585 35.735888 35.759033 35.784841 35.813352 35.844384
35.877957 35.913889 35.952181 35.992650 36.035280 36.079888 36.126441 36.174758
36.224789 36.276358 36.329399 36.383738 36.439296 36.495903 36.553468 36.611827
36.670874 36.730454 36.790449 36.850711 36.911111
37.288889 37.226310 37.163882 37.101745 37.040062 36.978960 36.918610 36.859125
36.800685 36.743390 36.687425 36.632875 36.579931 36.528661 36.479259 36.431779
36.386417 36.343207 36.302349 36.263857 36.227932 36.194567 36.163963 36.136094
36.111157 36.089105 36.070131 36.054168 36.041402 36.031745 36.025378 36.022187
36.022347 36.025723 36.032479 36.042456 36.055810 36.072358 36.092245 36.115265
36.141550 36.170872 36.203349 36.238732 36.277126 36.318257 36.362218 36.408715
36.457824 36.509233 36.563004 36.618806 36.676686 36.736298 36.797672 36.860452
36.924650 36.989902 37.056205 37.123187 37.190831 37.258763 37.326953 37.395024
37.462938 37.530321 37.597125 37.662982 37.727838 37.791337 37.853417 37.913739
37.972238 38.028594 38.082741 38.134383 38.183453 38.229684 38.273014 38.313204
38.350199 38.383794 38.413940 38.440470 38.463345 38.482436 38.497715 38.509095
38.516556 38.520057 38.519589 38.515153 38.506754 38.494434 38.478211 38.458170
38.434340 38.406846 38.375729 38.341153 38.303167 38.261974 38.217629 38.170369
38.120256 38.067558 38.012338 37.954893 37.895289 37.833844 37.770624 37.705968
37.639936 37.572884 37.504868 37.436254 37.367090 37.297751 37.228276 37.159042
37.090078 37.021760 36.954106 36.887488 36.821909 36.757737 36.694958 36.633931
36.574629 36.517395 36.462188 36.409338 36.358786 36.310847 36.265446 36.222878
36.183055 36.146251 36.112364 36.081648 36.053985 36.029608 36.008386 35.990530
35.975896 35.964673 35.956705 35.952159 35.950869 35.952978 35.958313 35.966992
35.978836 35.993940 36.012119 36.033446 36.057730 36.085023 36.115131 36.148085
36.183688 36.221951 36.262675 36.305851 36.351283 36.398941 36.448630 36.500304
36.553769 36.608962 36.665693 36.723884 36.783348 36.843991 36.905635 36.968171
37.031427 37.095281 37.159569 37.224156 37.288889
37.666667 37.599998 37.533488 37.467303 37.401590 37.336526 37.272245 37.208932
37.146706 37.085761 37.026199 36.968221 36.911911 36.857478 36.804986 36.754647
36.706508 36.660783 36.617500 36.576872 36.538907 36.503819 36.471594 36.442443
36.416331 36.393466 36.373788 36.357503 36.344526 36.335057 36.328987 36.326508
36.327487 36.332106 36.340209 36.351968 36.367199 36.386064 36.408354 36.434220
36.463426 36.496109 36.532011 36.571252 36.613551 36.659012 36.707333 36.758601
36.812492 36.869076 36.928010 36.989347 37.052727 37.118185 37.185346 37.254228
37.324443 37.395993 37.468481 37.541894 37.615827 37.690254 37.764766 37.839325
37.913525 37.987315 38.060293 38.132400 38.203246 38.272763 38.340574 38.406608
38.470507 38.532196 38.591341 38.647867 38.701469 38.752073 38.799405 38.843398
38.883811 38.920586 38.953520 38.982564 39.007557 39.028460 39.045157 39.057621
39.065781 39.069622 39.069121 39.064277 39.055114 39.041643 39.023934 39.002014
38.975997 38.945921 38.911946 38.874121 38.832645 38.787578 38.739159 38.687453
38.632735 38.575076 38.514782 38.451926 38.386844 38.319607 38.250575 38.179818
38.107712 38.034326 37.960048 37.884940 37.809402 37.733485 37.657595 37.581773
37.506427 37.431583 37.357648 37.284634 37.212941 37.142567 37.073903 37.006929
36.942025 36.879155 36.818683 36.760556 36.705121 36.652308 36.602445 36.555446
36.511616 36.470855 36.433445 36.399269 36.368589 36.341270 36.317552 36.297287
36.280688 36.267596 36.258199 36.252326 36.250142 36.251464 36.256432 36.264857
36.276851 36.292219 36.311051 36.333143 36.358562 36.387101 36.418802 36.453456
36.491084 36.531472 36.574621 36.620318 36.668541 36.719079 36.771891 36.826766
36.883646 36.942323 37.002721 37.064637 37.127977 37.192545 37.258230 37.324844
37.392263 37.460303 37.528829 37.597667 37.666667
38.044444 37.973760 37.903251 37.833080 37.763434 37.694462 37.626360 37.559263
37.493375 37.428815 37.365796 37.304418 37.244900 37.187325 37.131915 37.078734
37.028009 36.979781 36.934280 36.891526 36.851748 36.814944 36.781343 36.750918
36.723895 36.700225 36.680129 36.663531 36.650648 36.641378 36.635931 36.634179
36.636323 36.642208 36.652024 36.665590 36.683085 36.704300 36.729401 36.758152
36.790706 36.826800 36.866569 36.909727 36.956393 37.006253 37.059410 37.115529
37.174691 37.236539 37.301138 37.368111 37.437502 37.508916 37.582381 37.657485
37.734238 37.812216 37.891411 37.971391 38.052132 38.133196 38.214543 38.295737
38.376724 38.457069 38.536708 38.615215 38.692517 38.768200 38.842185 38.914074
38.983786 39.050946 39.115469 39.177010 39.235485 39.290580 39.342216 39.390115