# vtk DataFile Version 3.0
Steady-state temperature (Jacobi)
ASCII
DATASET STRUCTURED_POINTS
DIMENSIONS 181 181 1
ORIGIN 0.0 0.0 0.0
SPACING 0.05 0.05 1.0
POINT_DATA 32761
SCALARS Temperature float 1
LOOKUP_TABLE default
32.000000 32.000000 32.000000 32.000000 32.000000 32.000000 32.000000 32.000000
32.000000 32.000000 32.000000 32.000000 32.000000 32.000000 32.000000 32.000000
32.000000 32.000000 32.000000 32.000000 32.000000 32.000000 32.000000 32.000000
32.000000 32.000000 32.000000 32.000000 32.000000 32.000000 32.000000 32.000000
32.000000 32.000000 32.000000 32.000000 32.000000 32.000000 32.000000 32.000000
32.000000 32.000000 32.000000 32.000000 32.000000 32.000000 32.000000 32.000000
32.000000 32.000000 32.000000 32.000000 32.000000 32.000000 32.000000 32.000000
32.000000 32.000000 32.000000 32.000000 32.000000 32.000000 32.000000 32.000000
32.000000 32.000000 32.000000 32.000000 32.000000 32.000000 32.000000 32.000000
32.000000 32.000000 32.000000 32.000000 32.000000 32.000000 32.000000 32.000000
32.000000 32.000000 32.000000 32.000000 32.000000 32.000000 32.000000 32.000000
32.000000 32.000000 32.000000 32.000000 32.000000 32.000000 32.000000 32.000000
32.000000 32.000000 32.000000 32.000000 32.000000 32.000000 32.000000 32.000000
32.000000 32.000000 32.000000 32.000000 32.000000 32.000000 32.000000 32.000000
32.000000 32.000000 32.000000 32.000000 32.000000 32.000000 32.000000 32.000000
32.000000 32.000000 32.000000 32.000000 32.000000 32.000000 32.000000 32.000000
32.000000 32.000000 32.000000 32.000000 32.000000 32.000000 32.000000 32.000000
32.000000 32.000000 32.000000 32.000000 32.000000 32.000000 32.000000 32.000000
32.000000 32.000000 32.000000 32.000000 32.000000 32.000000 32.000000 32.000000
32.000000 32.000000 32.000000 32.000000 32.000000 32.000000 32.000000 32.000000
32.000000 32.000000 32.000000 32.000000 32.000000 32.000000 32.000000 32.000000
32.000000 32.000000 32.000000 32.000000 32.000000 32.000000 32.000000 32.000000
32.000000 32.000000 32.000000 32.000000 32.000000
32.377778 32.383399 32.389025 32.394661 32.400313 32.405986 32.411684 32.417413
32.423178 32.428983 32.434833 32.440733 32.446687 32.452699 32.458773 32.464913
32.471123 32.477407 32.483766 32.490205 32.496726 32.503332 32.510023 32.516804
32.523673 32.530635 32.537688 32.544834 32.552071 32.559402 32.566824 32.574337
32.581939 32.589630 32.597405 32.605264 32.613201 32.621217 32.629304 32.637460
32.645679 32.653958 32.662289 32.670668 32.679086 32.687540 32.696019 32.704518
32.713028 32.721541 32.730047 32.738539 32.747005 32.755439 32.763827 32.772161
32.780430 32.788623 32.796729 32.804738 32.812636 32.820414 32.828059 32.835561
32.842906 32.850085 32.857084 32.863894 32.870502 32.876897 32.883067 32.889004
32.894695 32.900130 32.905300 32.910195 32.914806 32.919124 32.923141 32.926850
32.930242 32.933312 32.936054 32.938461 32.940530 32.942256 32.943635 32.944666
32.945345 32.945672 32.945645 32.945266 32.944533 32.943450 32.942018 32.940239
32.938119 32.935660 32.932867 32.929747 32.926305 32.922547 32.918482 32.914116
32.909459 32.904519 32.899305 32.893826 32.888094 32.882117 32.875908 32.869475
32.862832 32.855988 32.848956 32.841747 32.834373 32.826845 32.819176 32.811375
32.803458 32.795432 32.787312 32.779106 32.770829 32.762488 32.754096 32.745663
32.737199 32.728713 32.720217 32.711717 32.703224 32.694745 32.686291 32.677865
32.669479 32.661137 32.652847 32.644614 32.636444 32.628342 32.620314 32.612363
32.604494 32.596709 32.589013 32.581407 32.573895 32.566477 32.559156 32.551932
32.544806 32.537778 32.530850 32.524018 32.517284 32.510646 32.504102 32.497651
32.491291 32.485019 32.478833 32.472729 32.466705 32.460757 32.454882 32.449075
32.443333 32.437652 32.432026 32.426451 32.420924 32.415438 32.409989 32.404571
32.399180 32.393811 32.388458 32.383115 32.377778
32.755556 32.766801 32.778057 32.789334 32.800642 32.811991 32.823392 32.834854
32.846387 32.858002 32.869707 32.881510 32.893423 32.905451 32.917604 32.929889
32.942315 32.954886 32.967612 32.980494 32.993543 33.006758 33.020149 33.033715
33.047462 33.061390 33.075504 33.089801 33.104286 33.118953 33.133806 33.148839
33.164054 33.179441 33.195002 33.210728 33.226615 33.242653 33.258840 33.275161
33.291612 33.308178 33.324853 33.341620 33.358471 33.375388 33.392361 33.409369
33.426403 33.443440 33.460467 33.477463 33.494411 33.511290 33.528082 33.544762
33.561315 33.577714 33.593942 33.609971 33.625783 33.641352 33.656658 33.671674
33.686380 33.700750 33.714764 33.728395 33.741624 33.754426 33.766781 33.778665
33.790059 33.800940 33.811292 33.821091 33.830323 33.838968 33.847012 33.854436
33.861229 33.867375 33.872864 33.877684 33.881827 33.885282 33.888045 33.890108
33.891468 33.892122 33.892069 33.891309 33.889843 33.887674 33.884806 33.881246
33.877000 33.872077 33.866485 33.860238 33.853346 33.845824 33.837684 33.828945
33.819620 33.809730 33.799290 33.788323 33.776845 33.764881 33.752448 33.739571
33.726270 33.712571 33.698493 33.684062 33.669299 33.654230 33.638876 33.623263
33.607412 33.591348 33.575092 33.558669 33.542097 33.525404 33.508605 33.491726
33.474783 33.457801 33.440792 33.423782 33.406782 33.389814 33.372890 33.356030
33.339243 33.322550 33.305956 33.289481 33.273129 33.256917 33.240849 33.224939
33.209189 33.193612 33.178210 33.162991 33.147956 33.133114 33.118462 33.104008
33.089748 33.075687 33.061821 33.048153 33.034677 33.021395 33.008301 32.995394
32.982667 32.970119 32.957740 32.945529 32.933475 32.921575 32.909819 32.898202
32.886713 32.875346 32.864090 32.852937 32.841877 32.830902 32.819999 32.809161
32.798376 32.787633 32.776923 32.766234 32.755556
33.133333 33.150211 33.167105 33.184029 33.201001 33.218035 33.235146 33.252350
33.269660 33.287092 33.304660 33.322377 33.340256 33.358311 33.376552 33.394993
33.413642 33.432514 33.451613 33.470953 33.490537 33.510378 33.530476 33.550843
33.571478 33.592389 33.613575 33.635041 33.656783 33.678807 33.701103 33.723676
33.746515 33.769622 33.792983 33.816596 33.840448 33.864533 33.888835 33.913346
33.938045 33.962925 33.987962 34.013145 34.038447 34.063856 34.089342 34.114890
34.140468 34.166060 34.191630 34.217160 34.242613 34.267968 34.293187 34.318247
34.343108 34.367745 34.392118 34.416200 34.439951 34.463343 34.486333 34.508895
34.530986 34.552578 34.573630 34.594112 34.613986 34.633223 34.651784 34.669642
34.686761 34.703113 34.718665 34.733391 34.747262 34.760254 34.772339 34.783497
34.793703 34.802941 34.811189 34.818433 34.824657 34.829851 34.834002 34.837103
34.839146 34.840130 34.840050 34.838907 34.836704 34.833445 34.829136 34.823786
34.817406 34.810007 34.801606 34.792218 34.781863 34.770558 34.758328 34.745195
34.731185 34.716322 34.700638 34.684157 34.666913 34.648934 34.630256 34.610907
34.590926 34.570341 34.549192 34.527510 34.505333 34.482692 34.459629 34.436172
34.412362 34.388228 34.363811 34.339138 34.314250 34.289171 34.263942 34.238587
34.213142 34.187631 34.162089 34.136538 34.111009 34.085523 34.060110 34.034786
34.009581 33.984508 33.959594 33.934850 33.910300 33.885952 33.861828 33.837935
33.814290 33.790899 33.767776 33.744923 33.722353 33.700066 33.678072 33.656369
33.634963 33.613851 33.593038 33.572516 33.552289 33.532349 33.512695 33.493318
33.474216 33.455377 33.436798 33.418466 33.400375 33.382512 33.364868 33.347430
33.330187 33.313124 33.296230 33.279490 33.262892 33.246418 33.230055 33.213787
33.197600 33.181477 33.165402 33.149360 33.133333
33.511111 33.533633 33.556176 33.578760 33.601407 33.624137 33.646971 33.669927
33.693028 33.716289 33.739734 33.763376 33.787237 33.811330 33.835675 33.860284
33.885175 33.910358 33.935851 33.961661 33.987802 34.014281 34.041110 34.068292
34.095838 34.123748 34.152031 34.180683 34.209710 34.239106 34.268876 34.299007
34.329502 34.360347 34.391541 34.423065 34.454916 34.487071 34.519524 34.552249
34.585236 34.618456 34.651895 34.685521 34.719317 34.753246 34.787289 34.821406
34.855575 34.889752 34.923912 34.958009 34.992015 35.025880 35.059575 35.093048
35.126266 35.159177 35.191745 35.223916 35.255654 35.286905 35.317629 35.347772
35.377296 35.406145 35.434280 35.461649 35.488212 35.513917 35.538727 35.562591
35.585472 35.607325 35.628113 35.647795 35.666337 35.683701 35.699856 35.714769
35.728413 35.740759 35.751786 35.761469 35.769790 35.776732 35.782281 35.786426
35.789159 35.790474 35.790368 35.788841 35.785896 35.781540 35.775780 35.768629
35.760100 35.750211 35.738981 35.726433 35.712590 35.697481 35.681133 35.663581
35.644854 35.624991 35.604026 35.582001 35.558953 35.534928 35.509963 35.484108
35.457402 35.429897 35.401632 35.372661 35.343024 35.312776 35.281955 35.250617
35.218800 35.186560 35.153934 35.120975 35.087721 35.054222 35.020514 34.986648
34.952654 34.918582 34.884461 34.850336 34.816234 34.782199 34.748253 34.714437
34.680771 34.647292 34.614017 34.580978 34.548190 34.515683 34.483467 34.451568
34.419993 34.388766 34.357889 34.327382 34.297246 34.267497 34.238131 34.209161
34.180583 34.152404 34.124617 34.097228 34.070225 34.043612 34.017376 33.991516
33.966017 33.940877 33.916078 33.891614 33.867468 33.843630 33.820081 33.796811
33.773798 33.751029 33.728484 33.706146 33.683995 33.662012 33.640177 33.618470
33.596869 33.575354 33.553904 33.532497 33.511111
33.888889 33.917070 33.945277 33.973537 34.001874 34.030317 34.058888 34.087615
34.116520 34.145630 34.174966 34.204553 34.234410 34.264563 34.295028 34.325828
34.356976 34.388497 34.420400 34.452706 34.485422 34.518567 34.552145 34.586173
34.620650 34.655592 34.690993 34.726865 34.763200 34.800007 34.837273 34.875003
34.913180 34.951806 34.990860 35.030340 35.070219 35.110492 35.151128 35.192117
35.233425 35.275038 35.316915 35.359038 35.401365 35.443872 35.486512 35.529258
35.572059 35.614883 35.657676 35.700403 35.743005 35.785445 35.827662 35.869613
35.911235 35.952485 35.993296 36.033622 36.073396 36.112570 36.151076 36.188865
36.225868 36.262037 36.297304 36.331619 36.364916 36.397148 36.428249 36.458173
36.486859 36.514262 36.540326 36.565008 36.588256 36.610032 36.630289 36.648992
36.666101 36.681586 36.695413 36.707558 36.717993 36.726700 36.733659 36.738859
36.742286 36.743935 36.743803 36.741888 36.738196 36.732732 36.725510 36.716541
36.705847 36.693445 36.679364 36.663627 36.646270 36.627322 36.606824 36.584812
36.561333 36.536424 36.510140 36.482522 36.453627 36.423502 36.392206 36.359788
36.326312 36.291826 36.256398 36.220078 36.182932 36.145011 36.106384 36.067101
36.027229 35.986817 35.945933 35.904624 35.862956 35.820973 35.778741 35.736299
35.693712 35.651016 35.608271 35.565513 35.522797 35.480153 35.437635 35.395270
35.353105 35.311165 35.269492 35.228107 35.187048 35.146331 35.105991 35.066039
35.026505 34.987396 34.948739 34.910535 34.872808 34.835555 34.798794 34.762520
34.726747 34.691466 34.656685 34.622394 34.588598 34.555281 34.522445 34.490073
34.458162 34.426692 34.395658 34.365037 34.334820 34.304985 34.275517 34.246393
34.217596 34.189101 34.160890 34.132936 34.105218 34.077710 34.050388 34.023225
33.996196 33.969275 33.942434 33.915648 33.888889
34.266667 34.300526 34.334417 34.368370 34.402419 34.436592 34.470922 34.505437
34.540170 34.575146 34.610398 34.645948 34.681829 34.718059 34.754671 34.791681
34.829118 34.866995 34.905340 34.944163 34.983488 35.023322 35.063687 35.104584
35.146032 35.188030 35.230592 35.273712 35.317400 35.361646 35.406458 35.451817
35.497728 35.544169 35.591138 35.638608 35.686574 35.735003 35.783883 35.833178
35.882871 35.932918 35.983301 36.033968 36.084896 36.136030 36.187339 36.238765
36.290272 36.341797 36.393299 36.444712 36.495990 36.547062 36.597880 36.648369
36.698477 36.748125 36.797260 36.845802 36.893693 36.940852 36.987220 37.032715
37.077278 37.120826 37.163301 37.204621 37.244726 37.283540 37.321003 37.357041
37.391597 37.424601 37.456001 37.485729 37.513738 37.539968 37.564374 37.586904
37.607518 37.626172 37.642833 37.657464 37.670038 37.680528 37.688914 37.695179
37.699309 37.701297 37.701137 37.698831 37.694383 37.687802 37.679100 37.668297
37.655411 37.640472 37.623506 37.604550 37.583638 37.560815 37.536120 37.509607
37.481320 37.451320 37.419656 37.386394 37.351588 37.315309 37.277612 37.238575
37.198255 37.156731 37.114063 37.070332 37.025599 36.979946 36.933432 36.886142
36.838134 36.789490 36.740267 36.690547 36.640385 36.589858 36.539021 36.487947
36.436687 36.385312 36.333867 36.282422 36.231015 36.179713 36.128550 36.077587
36.026854 35.976406 35.926270 35.876494 35.827101 35.778134 35.729609 35.681565
35.634014 35.586989 35.540496 35.494563 35.449192 35.404405 35.360200 35.316594
35.273580 35.231170 35.189353 35.148137 35.107506 35.067463 35.027989 34.989084
34.950725 34.912907 34.875604 34.838808 34.802490 34.766639 34.731224 34.696228
34.661622 34.627384 34.593483 34.559896 34.526589 34.493537 34.460708 34.428072
34.395596 34.363250 34.331001 34.298818 34.266667
34.644444 34.684005 34.723601 34.763273 34.803054 34.842983 34.883093 34.923423
34.964005 35.004876 35.046064 35.087608 35.129533 35.171874 35.214655 35.257910
35.301657 35.345929 35.390741 35.436121 35.482081 35.528647 35.575825 35.623637
35.672086 35.721189 35.770943 35.821363 35.872438 35.924180 35.976572 36.029621
36.083305 36.137623 36.192549 36.248078 36.304174 36.360830 36.418002 36.475676
36.533805 36.592367 36.651308 36.710602 36.770188 36.830033 36.890072 36.950265
37.010542 37.070859 37.131137 37.191328 37.251351 37.311150 37.370640 37.429763
37.488428 37.546573 37.604106 37.660960 37.717042 37.772283 37.826587 37.879884
37.932079 37.983101 38.032855 38.081270 38.128253 38.173736 38.217627 38.259860
38.300350 38.339031 38.375824 38.410668 38.443491 38.474236 38.502839 38.529249
38.553409 38.575277 38.594804 38.611956 38.626695 38.638993 38.648824 38.656169
38.661011 38.663342 38.663157 38.660454 38.655241 38.647527 38.637329 38.624665
38.609564 38.592052 38.572168 38.549948 38.525441 38.498688 38.469749 38.438673
38.405527 38.370366 38.333264 38.294283 38.253502 38.210987 38.166824 38.121080
38.073847 38.025194 37.975214 37.923980 37.871586 37.818105 37.763632 37.708237
37.652019 37.595045 37.537410 37.479182 37.420453 37.361287 37.301774 37.241973
37.181971 37.121824 37.061614 37.001390 36.941231 36.881181 36.821314 36.761667
36.702309 36.643272 36.584618 36.526374 36.468595 36.411303 36.354546 36.298340
36.242727 36.187718 36.133349 36.079622 36.026570 35.974190 35.922506 35.871511
35.821223 35.771632 35.722748 35.674556 35.627063 35.580247 35.534110 35.488628
35.443797 35.399589 35.355996 35.312986 35.270546 35.228644 35.187260 35.146361
35.105924 35.065913 35.026302 34.987054 34.948138 34.909517 34.871160 34.833026
34.795083 34.757289 34.719611 34.682009 34.644444
35.022222 35.067509 35.112839 35.158253 35.203795 35.249505 35.295426 35.341595
35.388057 35.434847 35.482007 35.529569 35.577574 35.626052 35.675042 35.724567
35.774667 35.825361 35.876684 35.928650 35.981293 36.034621 36.088664 36.143424
36.198928 36.255172 36.312178 36.369935 36.428461 36.487738 36.547779 36.608561
36.670088 36.732332 36.795290 36.858927 36.923235 36.988171 37.053720 37.119831
37.186485 37.253622 37.321216 37.389200 37.457541 37.526167 37.595036 37.664070
37.733221 37.802405 37.871566 37.940615 38.009492 38.078100 38.146374 38.214214
38.281550 38.348277 38.414322 38.479575 38.543962 38.607371 38.669724 38.730910
38.790848 38.849429 38.906569 38.962163 39.016128 39.068359 39.118777 39.167282
39.213796 39.258226 39.300498 39.340523 39.378237 39.413557 39.446423 39.476765
39.504529 39.529654 39.552095 39.571803 39.588742 39.602873 39.614172 39.622613
39.628179 39.630859 39.630647 39.627543 39.621553 39.612691 39.600972 39.586423
39.569070 39.548951 39.526103 39.500576 39.472415 39.441683 39.408432 39.372734
39.334651 39.294264 39.251639 39.206867 39.160019 39.111193 39.060464 39.007934
38.953684 38.897819 38.840420 38.781597 38.721432 38.660036 38.597490 38.533906
38.469363 38.403973 38.337812 38.270990 38.203582 38.135692 38.067391 37.998782
37.929929 37.860931 37.791847 37.722770 37.653754 37.584885 37.516211 37.447813
37.379732 37.312042 37.244777 37.178003 37.111749 37.046075 36.981001 36.916580
36.852825 36.789783 36.727460 36.665895 36.605089 36.545072 36.485841 36.427418
36.369793 36.312984 36.256974 36.201773 36.147361 36.093741 36.040888 35.988801
35.937449 35.886824 35.836894 35.787645 35.739040 35.691062 35.643672 35.596845
35.550542 35.504734 35.459379 35.414446 35.369890 35.325677 35.281763 35.238108
35.194669 35.151405 35.108271 35.065225 35.022222
35.400000 35.451044 35.502136 35.553325 35.604656 35.656179 35.707938 35.759982
35.812352 35.865098 35.918257 35.971877 36.025992 36.080648 36.135875 36.191718
36.248201 36.305365 36.363231 36.421837 36.481196 36.541344 36.602287 36.664057
36.726654 36.790104 36.854402 36.919567 36.985586 37.052475 37.120212 37.188806
37.258228 37.328480 37.399526 37.471361 37.543940 37.617250 37.691239 37.765888
37.841134 37.916951 37.993268 38.070053 38.147225 38.224745 38.302525 38.380517
38.458627 38.536799 38.614932 38.692963 38.770786 38.848330 38.925483 39.002170
39.078274 39.153713 39.228367 39.302152 39.374942 39.446651 39.517152 39.586355
39.654135 39.720399 39.785024 39.847917 39.908957 39.968053 40.025089 40.079975
40.132599 40.182879 40.230709 40.276009 40.318685 40.358663 40.395857 40.430203
40.461625 40.490067 40.515467 40.537779 40.556952 40.572952 40.585742 40.595299
40.601602 40.604637 40.604398 40.600886 40.594108 40.584077 40.570814 40.554345
40.534706 40.511932 40.486075 40.457180 40.425312 40.390527 40.352901 40.312498
40.269407 40.223700 40.175474 40.124809 40.071810 40.016562 39.959177 39.899745
39.838384 39.775185 39.710271 39.643734 39.575699 39.506260 39.435542 39.363637
39.290671 39.216733 39.141948 39.066402 38.990217 38.913474 38.836292 38.758746
38.680951 38.602977 38.524932 38.446880 38.368922 38.291116 38.213557 38.136293
38.059414 37.982960 37.907012 37.831605 37.756810 37.682653 37.609200 37.536468
37.464513 37.393347 37.323017 37.253528 37.184919 37.117186 37.050361 36.984435
36.919430 36.855332 36.792156 36.729880 36.668513 36.608027 36.548425 36.489674
36.431769 36.374674 36.318378 36.262839 36.208042 36.153942 36.100516 36.047719
35.995523 35.943878 35.892754 35.842099 35.791877 35.742037 35.692539 35.643331
35.594370 35.545604 35.496987 35.448469 35.400000
35.777778 35.834612 35.891500 35.948495 36.005651 36.063019 36.120654 36.178603
36.236922 36.295655 36.354856 36.414565 36.474835 36.535702 36.597217 36.659409
36.722328 36.785998 36.850464 36.915745 36.981883 37.048888 37.116798 37.185618
37.255380 37.326080 37.397746 37.470366 37.543960 37.618511 37.694030 37.770492
37.847901 37.926222 38.005453 38.085549 38.166502 38.248256 38.330794 38.414052
38.498005 38.582580 38.667742 38.753409 38.839539 38.926041 39.012863 39.099905
39.187109 39.274366 39.361610 39.448725 39.535636 39.622221 39.708398 39.794040
39.879058 39.963320 40.046733 40.129159 40.210501 40.290621 40.369417 40.446749
40.522515 40.596574 40.668822 40.739124 40.807374 40.873440 40.937220 40.998587
41.057442 41.113665 41.167164 41.217825 41.265563 41.310276 41.351886 41.390303
41.425458 41.457275 41.485695 41.510655 41.532110 41.550010 41.564324 41.575017
41.582071 41.585469 41.585204 41.581277 41.573695 41.562475 41.547637 41.529215
41.507243 41.481770 41.452842 41.420524 41.384873 41.345968 41.303878 41.258694
41.210494 41.159382 41.105443 41.048792 40.989521 40.927753 40.863585 40.797146
40.728540 40.657899 40.585329 40.510967 40.434919 40.357324 40.278287 40.197949
40.116412 40.033816 39.950258 39.865878 39.780770 39.695066 39.608857 39.522271
39.435391 39.348340 39.261194 39.174070 39.087035 39.000200 38.913623 38.827408
38.741604 38.656305 38.571554 38.487435 38.403983 38.321272 38.239329 38.158219
38.077960 37.998608 37.920173 37.842702 37.766196 37.690693 37.616187 37.542708
37.470242 37.398809 37.328390 37.258997 37.190603 37.123212 37.056793 36.991342
36.926822 36.863223 36.800502 36.738642 36.677597 36.617344 36.557834 36.499037
36.440900 36.383391 36.326453 36.270048 36.214119 36.158624 36.103505 36.048715
35.994197 35.939899 35.885766 35.831745 35.777778
36.155556 36.218217 36.280937 36.343776 36.406792 36.470045 36.533590 36.597487
36.661789 36.726555 36.791831 36.857679 36.924139 36.991269 37.059106 37.127706
37.197098 37.267334 37.338439 37.410462 37.483418 37.557351 37.632272 37.708218
37.785191 37.863222 37.942306 38.022468 38.103692 38.185997 38.269358 38.353785
38.439245 38.525739 38.613224 38.701693 38.791093 38.881408 38.972574 39.064566
39.157311 39.250774 39.344870 39.439557 39.534739 39.630365 39.726328 39.822569
39.918973 40.015468 40.111933 40.208288 40.304402 40.400188 40.495509 40.590268
40.684323 40.777573 40.869867 40.961101 41.051121 41.139816 41.227033 41.312656
41.396532 41.478545 41.558540 41.636403 41.711983 41.785166 41.855806 41.923792
41.988986 42.051282 42.110549 42.166689 42.219581 42.269135 42.315242 42.357822
42.396781 42.432049 42.463546 42.491216 42.514995 42.534841 42.550707 42.562563
42.570384 42.574153 42.573862 42.569511 42.561110 42.548674 42.532232 42.511814
42.487466 42.459232 42.427177 42.391357 42.351854 42.308738 42.262103 42.212031
42.158632 42.101996 42.042245 41.979479 41.913828 41.845400 41.774334 41.700742
41.624770 41.546534 41.466185 41.383840 41.299653 41.213741 41.126260 41.037325
40.947091 40.855671 40.763217 40.669839 40.575684 40.480857 40.385502 40.289715
40.193635 40.097351 40.000994 39.904645 39.808429 39.712416 39.616723 39.521411
39.426589 39.332307 39.238664 39.145703 39.053511 38.962121 38.871611 38.782005
38.693369 38.605719 38.519112 38.433553 38.349088 38.265716 38.183472 38.102347
38.022366 37.943511 37.865801 37.789208 37.713742 37.639370 37.566092 37.493870
37.422696 37.352525 37.283343 37.215100 37.147774 37.081311 37.015682 36.950832
36.886724 36.823299 36.760516 36.698315 36.636649 36.575455 36.514684 36.454271
36.394164 36.334297 36.274615 36.215055 36.155556
36.533333 36.601860 36.670453 36.739175 36.808093 36.877269 36.946769 37.016652
37.086984 37.157819 37.229224 37.301247 37.373952 37.447384 37.521604 37.596648
37.672578 37.749422 37.827235 37.906042 37.985891 38.066799 38.148810 38.231931
38.316201 38.401617 38.488211 38.575972 38.664924 38.755045 38.846352 38.938811
39.032433 39.127173 39.223030 39.319950 39.417922 39.516882 39.616808 39.717624
39.819299 39.921746 40.024923 40.128731 40.233119 40.337977 40.443242 40.548795
40.654564 40.760417 40.866273 40.971993 41.077486 41.182602 41.287244 41.391254
41.494527 41.596900 41.698259 41.798438 41.897318 41.994729 42.090546 42.184601
42.276765 42.366868 42.454784 42.540343 42.623419 42.703849 42.781507 42.856237
42.927919 42.996404 43.061578 43.123303 43.181474 43.235964 43.286679 43.333506
43.376362 43.415151 43.449802 43.480237 43.506400 43.528231 43.545689 43.558734
43.567341 43.571489 43.571172 43.566389 43.557149 43.543474 43.525388 43.502933
43.476150 43.445100 43.409840 43.370450 43.327001 43.279589 43.228299 43.173245
43.114521 43.052255 42.986554 42.917556 42.845377 42.770165 42.692042 42.611167
42.527664 42.441698 42.353397 42.262931 42.170428 42.076060 41.979954 41.882282
41.783169 41.682787 41.581255 41.478741 41.375361 41.271277 41.166598 41.061480
40.956026 40.850383 40.744645 40.638953 40.533389 40.428085 40.323115 40.218601
40.114606 40.011241 39.908559 39.806661 39.705588 39.605431 39.506220 39.408035
39.310897 39.214873 39.119974 39.026256 38.933721 38.842414 38.752327 38.663494
38.575900 38.489568 38.404473 38.320629 38.238005 38.156604 38.076387 37.997350
37.919447 37.842664 37.766951 37.692286 37.618613 37.545903 37.474096 37.403157
37.333021 37.263646 37.194967 37.126936 37.059483 36.992557 36.926088 36.860019
36.794280 36.728810 36.663539 36.598403 36.533333
36.911111 36.985547 37.060053 37.134703 37.209564 37.284710 37.360205 37.436123
37.512525 37.589485 37.667056 37.745313 37.824304 37.904099 37.984742 38.066300
38.148810 38.232333 38.316900 38.402569 38.489360 38.577326 38.666478 38.756864
38.848486 38.941382 39.035546 39.131009 39.227753 39.325800 39.425122 39.525733
39.627591 39.730702 39.835012 39.940515 40.047148 40.154893 40.263673 40.373461
40.484168 40.595755 40.708121 40.821214 40.934922 41.049182 41.163870 41.278913
41.394173 41.509568 41.624950 41.740224 41.855233 41.969874 42.083981 42.197439
42.310077 42.421773 42.532347 42.641672 42.749564 42.855890 42.960462 43.063144
43.163749 43.262137 43.358122 43.451565 43.542283 43.630139 43.714956 43.796599
43.874901 43.949733 44.020937 44.088392 44.151954 44.211510 44.266932 44.318119
44.364957 44.407362 44.445237 44.478513 44.507113 44.530983 44.550070 44.564335
44.573746 44.578286 44.577942 44.572717 44.562620 44.547672 44.527906 44.503360
44.474089 44.440148 44.401615 44.358559 44.311078 44.259259 44.203215 44.143048
44.078888 44.010847 43.939073 43.863686 43.784845 43.702680 43.617361 43.529022
43.437842 43.343959 43.247557 43.148777 43.047806 42.944784 42.839899 42.733292
42.625148 42.515603 42.404841 42.292994 42.180239 42.066702 41.952555 41.837914
41.722946 41.607756 41.492504 41.377284 41.262245 41.147473 41.033106 40.919219
40.805937 40.693325 40.581497 40.470504 40.360451 40.251378 40.143374 40.036469
39.930742 39.826209 39.722939 39.620937 39.520257 39.420897 39.322899 39.226248
39.130978 39.037064 38.944528 38.853337 38.763500 38.674980 38.587775 38.501838
38.417160 38.333687 38.251399 38.170240 38.090179 38.011155 37.933131 37.856040
37.779839 37.704457 37.629844 37.555928 37.482653 37.409945 37.337742 37.265969
37.194561 37.123442 37.052543 36.981790 36.911111
37.288889 37.369279 37.449746 37.530367 37.611220 37.692378 37.773921 37.855916
37.938445 38.021569 38.105368 38.189900 38.275241 38.361443 38.448580 38.536695
38.625860 38.716110 38.807511 38.900091 38.993910 39.088987 39.185374 39.283082
39.382156 39.482594 39.584435 39.687666 39.792317 39.898362 40.005823 40.114661
40.224887 40.336452 40.449355 40.563532 40.678973 40.795601 40.913392 41.032258
41.152161 41.273001 41.394728 41.517226 41.640435 41.764226 41.888525 42.013193
42.138142 42.263219 42.388328 42.513305 42.638040 42.762359 42.886142 43.009208
43.131427 43.252609 43.372616 43.491253 43.608375 43.723783 43.837326 43.948803
44.058062 44.164900 44.269163 44.370651 44.469212 44.564651 44.656818 44.745524
44.830626 44.911946 44.989345 45.062660 45.131763 45.196502 45.256763 45.312411
45.363346 45.409452 45.450644 45.486828 45.517936 45.543895 45.564657 45.580173
45.590414 45.595354 45.594984 45.589306 45.578329 45.562078 45.540585 45.513898
45.482069 45.445169 45.403269 45.356462 45.304837 45.248508 45.187577 45.122181
45.052435 44.978491 44.900477 44.818560 44.732879 44.643611 44.550904 44.454946
44.355888 44.253926 44.149215 44.041955 43.932302 43.820460 43.706581 43.590870
43.473477 43.354604 43.234396 43.113051 42.990707 42.867557 42.743730 42.619412
42.494722 42.369837 42.244867 42.119978 41.995269 41.870894 41.746941 41.623553
41.500803 41.378824 41.257676 41.137479 41.018280 40.900186 40.783232 40.667510
40.553045 40.439916 40.328134 40.217764 40.108809 40.001319 39.895286 39.790748
39.687686 39.586126 39.486039 39.387441 39.290293 39.194598 39.100311 39.007423
38.915883 38.825672 38.736730 38.649030 38.562508 38.477127 38.392816 38.309532
38.227201 38.145772 38.065166 37.985327 37.906174 37.827644 37.749654 37.672138
37.595013 37.518205 37.441633 37.365222 37.288889
37.666667 37.753059 37.839534 37.926177 38.013067 38.100292 38.187926 38.276057
38.364755 38.454107 38.544177 38.635051 38.726787 38.819468 38.913144 39.007894
39.103762 39.200821 39.299107 39.398688 39.499589 39.601873 39.705553 39.810686
39.917274 40.025365 40.134952 40.246070 40.358701 40.472871 40.588550 40.705752
40.824433 40.944597 41.066186 41.189192 41.313541 41.439216 41.566127 41.694242
41.823459 41.953733 42.084947 42.217041 42.349884 42.483405 42.617458 42.751957
42.886744 43.021720 43.156714 43.291614 43.426238 43.560462 43.694093 43.826998
43.958973 44.089875 44.219494 44.347678 44.474212 44.598937 44.721634 44.842139
44.960233 45.075749 45.188469 45.298225 45.404804 45.508039 45.607722 45.703694
45.795754 45.883749 45.967493 46.046839 46.121617 46.191694 46.256913 46.317158
46.372291 46.422211 46.466804 46.505986 46.539666 46.567779 46.590261 46.607067
46.618158 46.623512 46.623117 46.616972 46.605093 46.587500 46.564236 46.535345
46.500893 46.460945 46.415594 46.364924 46.309052 46.248079 46.182142 46.111363
46.035896 45.955875 45.871475 45.782840 45.690160 45.593588 45.493326 45.389535
45.282425 45.172162 45.058963 44.942996 44.824480 44.703583 44.580528 44.455478
44.328654 44.200218 44.070384 43.939308 43.807199 43.674205 43.540528 43.406305
43.271731 43.136929 43.002086 42.867313 42.732783 42.598598 42.464918 42.331829
42.199479 42.067941 41.937350 41.807764 41.679304 41.552016 41.426004 41.301302
41.177999 41.056117 40.935732 40.816850 40.699533 40.583778 40.469631 40.357077
40.246152 40.136826 40.029124 39.923007 39.818485 39.715513 39.614086 39.514153
39.415697 39.318659 39.223013 39.128691 39.035660 38.943845 38.853204 38.763657
38.675153 38.587611 38.500970 38.415146 38.330074 38.245665 38.161848 38.078535
37.995650 37.913104 37.830816 37.748698 37.666667
38.044444 38.136889 38.229424 38.322137 38.415121 38.508458 38.602244 38.696555
38.791487 38.887112 38.983521 39.080784 39.178988 39.278194 39.378488 39.479922
39.582578 39.686499 39.791761 39.898398 40.006480 40.116029 40.227109 40.339730
40.453947 40.569760 40.687213 40.806293 40.927035 41.049413 41.173449 41.299103
41.426388 41.555248 41.685682 41.817620 41.951048 42.085881 42.222091 42.359577
42.498297 42.638135 42.779034 42.920863 43.063550 43.206949 43.350972 43.495460
43.640312 43.785351 43.930463 44.075460 44.220214 44.364524 44.508249 44.651179
44.793161 44.933975 45.073459 45.211386 45.347586 45.481825 45.613928 45.743659
45.870838 45.995229 46.116649 46.234865 46.349696 46.460913 46.568339 46.671753
46.770983 46.865821 46.956103 47.041636 47.122267 47.197819 47.268155 47.333116