# vtk DataFile Version 3.0
Steady-state temperature (Jacobi)
ASCII
DATASET STRUCTURED_POINTS
DIMENSIONS 181 181 1
ORIGIN 0.0 0.0 0.0
SPACING 0.05 0.05 1.0
POINT_DATA 32761
SCALARS Temperature float 1
LOOKUP_TABLE default
32.000000 32.000000 32.000000 32.000000 32.000000 32.000000 32.000000 32.000000
32.000000 32.000000 32.000000 32.000000 32.000000 32.000000 32.000000 32.000000
32.000000 32.000000 32.000000 32.000000 32.000000 32.000000 32.000000 32.000000
32.000000 32.000000 32.000000 32.000000 32.000000 32.000000 32.000000 32.000000
32.000000 32.000000 32.000000 32.000000 32.000000 32.000000 32.000000 32.000000
32.000000 32.000000 32.000000 32.000000 32.000000 32.000000 32.000000 32.000000
32.000000 32.000000 32.000000 32.000000 32.000000 32.000000 32.000000 32.000000
32.000000 32.000000 32.000000 32.000000 32.000000 32.000000 32.000000 32.000000
32.000000 32.000000 32.000000 32.000000 32.000000 32.000000 32.000000 32.000000
32.000000 32.000000 32.000000 32.000000 32.000000 32.000000 32.000000 32.000000
32.000000 32.000000 32.000000 32.000000 32.000000 32.000000 32.000000 32.000000
32.000000 32.000000 32.000000 32.000000 32.000000 32.000000 32.000000 32.000000
32.000000 32.000000 32.000000 32.000000 32.000000 32.000000 32.000000 32.000000
32.000000 32.000000 32.000000 32.000000 32.000000 32.000000 32.000000 32.000000
32.000000 32.000000 32.000000 32.000000 32.000000 32.000000 32.000000 32.000000
32.000000 32.000000 32.000000 32.000000 32.000000 32.000000 32.000000 32.000000
32.000000 32.000000 32.000000 32.000000 32.000000 32.000000 32.000000 32.000000
32.000000 32.000000 32.000000 32.000000 32.000000 32.000000 32.000000 32.000000
32.000000 32.000000 32.000000 32.000000 32.000000 32.000000 32.000000 32.000000
32.000000 32.000000 32.000000 32.000000 32.000000 32.000000 32.000000 32.000000
32.000000 32.000000 32.000000 32.000000 32.000000 32.000000 32.000000 32.000000
32.000000 32.000000 32.000000 32.000000 32.000000 32.000000 32.000000 32.000000
32.000000 32.000000 32.000000 32.000000 32.000000
32.377778 32.407856 32.437939 32.468032 32.498139 32.528265 32.558413 32.588589
32.618796 32.649038 32.679318 32.709640 32.740005 32.770417 32.800876 32.831386
32.861944 32.892554 32.923212 32.953920 32.984674 33.015474 33.046315 33.077194
33.108105 33.139045 33.170005 33.200981 33.231962 33.262942 33.293908 33.324854
33.355763 33.386628 33.417431 33.448163 33.478803 33.509342 33.539757 33.570037
33.600158 33.630106 33.659857 33.689397 33.718699 33.747747 33.776516 33.804987
33.833136 33.860942 33.888381 33.915434 33.942074 33.968284 33.994036 34.019313
34.044091 34.068351 34.092069 34.115229 34.137809 34.159792 34.181158 34.201893
34.221977 34.241397 34.260137 34.278184 34.295523 34.312145 34.328036 34.343188
34.357589 34.371232 34.384108 34.396212 34.407534 34.418071 34.427816 34.436766
34.444915 34.452262 34.458803 34.464535 34.469456 34.473565 34.476859 34.479339
34.481003 34.481850 34.481881 34.481096 34.479495 34.477079 34.473849 34.469805
34.464951 34.459286 34.452815 34.445539 34.437463 34.428589 34.418922 34.408466
34.397228 34.385212 34.372427 34.358877 34.344575 34.329525 34.313741 34.297230
34.280006 34.262080 34.243467 34.224178 34.204231 34.183639 34.162422 34.140594
34.118176 34.095184 34.071641 34.047563 34.022975 33.997895 33.972348 33.946351
33.919932 33.893109 33.865908 33.838347 33.810454 33.782247 33.753752 33.724987
33.695977 33.666740 33.637301 33.607676 33.577887 33.547951 33.517889 33.487714
33.457448 33.427103 33.396696 33.366239 33.335749 33.305234 33.274709 33.244182
33.213666 33.183166 33.152694 33.122253 33.091853 33.061496 33.031189 33.000934
32.970737 32.940597 32.910518 32.880499 32.850542 32.820645 32.790809 32.761031
32.731310 32.701641 32.672025 32.642456 32.612931 32.583446 32.553997 32.524579
32.495187 32.465816 32.436461 32.407117 32.377778
32.755556 32.815715 32.875884 32.936072 32.996289 33.056543 33.116843 33.177198
33.237616 33.298103 33.358668 33.419314 33.480051 33.540878 33.601803 33.662826
33.723951 33.785174 33.846500 33.907922 33.969441 34.031047 34.092739 34.154505
34.216341 34.278229 34.340165 34.402126 34.464104 34.526074 34.588025 34.649927
34.711766 34.773508 34.835136 34.896613 34.957918 35.019010 35.079865 35.140440
35.200708 35.260621 35.320150 35.379247 35.437878 35.495993 35.553558 35.610520
35.666845 35.722478 35.777383 35.831508 35.884815 35.937252 35.988783 36.039355
36.088935 36.137472 36.184932 36.231269 36.276450 36.320432 36.363184 36.404666
36.444852 36.483705 36.521200 36.557304 36.591997 36.625249 36.657044 36.687354
36.716167 36.743459 36.769220 36.793431 36.816082 36.837159 36.856655 36.874557
36.890861 36.905557 36.918641 36.930106 36.939951 36.948169 36.954759 36.959719
36.963047 36.964742 36.964805 36.963234 36.960031 36.955199 36.948736 36.940648
36.930937 36.919607 36.906662 36.892108 36.875951 36.858200 36.838861 36.817946
36.795462 36.771426 36.745847 36.718743 36.690127 36.660020 36.628439 36.595409
36.560947 36.525085 36.487842 36.449252 36.409340 36.368144 36.325689 36.282018
36.237160 36.191160 36.144050 36.095878 36.046678 35.996499 35.945379 35.893367
35.840502 35.786836 35.732406 35.677266 35.621452 35.565019 35.508001 35.450452
35.392406 35.333915 35.275010 35.215741 35.156139 35.096250 35.036102 34.975738
34.915183 34.854477 34.793643 34.732716 34.671716 34.610674 34.549607 34.488543
34.427494 34.366485 34.305525 34.244635 34.183821 34.123100 34.062474 34.001959
33.941554 33.881269 33.821101 33.761059 33.701137 33.641340 33.581661 33.522101
33.462652 33.403314 33.344076 33.284935 33.225882 33.166910 33.108008 33.049169
32.990382 32.931638 32.872926 32.814235 32.755556
33.133333 33.223579 33.313839 33.404128 33.494459 33.584848 33.675305 33.765846
33.856480 33.947221 34.038076 34.129059 34.220172 34.311428 34.402826 34.494377
34.586076 34.677932 34.769934 34.862090 34.954384 35.046819 35.139377 35.232055
35.324830 35.417696 35.510624 35.603602 35.696597 35.789593 35.882550 35.975447
36.068240 36.160901 36.253381 36.345647 36.437645 36.529338 36.620665 36.711585
36.802032 36.891963 36.981305 37.070012 37.158010 37.245246 37.331645 37.417153
37.501692 37.585206 37.667616 37.748867 37.828879 37.907597 37.984943 38.060862
38.135280 38.208142 38.279378 38.348936 38.416749 38.482771 38.546938 38.609206
38.669519 38.727838 38.784110 38.838302 38.890367 38.940277 38.987990 39.033482
39.076718 39.117679 39.156334 39.192668 39.226656 39.258286 39.287538 39.314403
39.338865 39.360917 39.380547 39.397751 39.412521 39.424852 39.434739 39.442181
39.447174 39.449718 39.449811 39.447455 39.442650 39.435398 39.425703 39.413567
39.398996 39.381995 39.362573 39.340734 39.316492 39.289854 39.260837 39.229450
39.195713 39.159641 39.121257 39.080579 39.037638 38.992452 38.945058 38.895482
38.843764 38.789934 38.734040 38.676115 38.616214 38.554373 38.490653 38.425097
38.357769 38.288715 38.218006 38.145690 38.071842 37.996514 37.919783 37.841703
37.762354 37.681791 37.600094 37.517319 37.433547 37.348832 37.263254 37.176866
37.089747 37.001947 36.913541 36.824578 36.735129 36.645237 36.554971 36.464370
36.373497 36.282387 36.191098 36.099660 36.008125 35.916519 35.824887 35.733250
35.641649 35.550099 35.458635 35.367267 35.276024 35.184913 35.093957 35.003158
34.912534 34.822084 34.731819 34.641736 34.551842 34.462128 34.372600 34.283245
34.194064 34.105044 34.016180 33.927459 33.838872 33.750405 33.662047 33.573781
33.485595 33.397473 33.309400 33.221358 33.133333
33.511111 33.631450 33.751809 33.872206 33.992661 34.113191 34.233816 34.354551
34.475414 34.596416 34.717577 34.838903 34.960412 35.082105 35.203998 35.326088
35.448386 35.570886 35.693594 35.816498 35.939601 36.062882 36.186342 36.309953
36.433708 36.557575 36.681540 36.805563 36.929625 37.053677 37.177696 37.301623
37.425429 37.549048 37.672443 37.795542 37.918301 38.040641 38.162512 38.283827
38.404530 38.524529 38.643764 38.762136 38.879580 38.995995 39.111310 39.225422
39.338258 39.449711 39.559708 39.668143 39.774941 39.879996 39.983236 40.084556
40.183886 40.281125 40.376207 40.469035 40.559547 40.647653 40.733294 40.816388
40.896883 40.974703 41.049801 41.122111 41.191591 41.258183 41.321851 41.382545
41.440237 41.494882 41.546458 41.594928 41.640274 41.682466 41.721491 41.757326
41.789958 41.819372 41.845558 41.868504 41.888205 41.904652 41.917840 41.927765
41.934425 41.937817 41.937942 41.934799 41.928389 41.918717 41.905785 41.889598
41.870162 41.847486 41.821577 41.792448 41.760108 41.724577 41.685864 41.643995
41.598984 41.550863 41.499649 41.445380 41.388081 41.327795 41.264552 41.198405
41.129387 41.057561 40.982966 40.905671 40.825724 40.743201 40.658155 40.570670
40.480804 40.388649 40.294269 40.197758 40.099187 39.998656 39.896236 39.792032
39.686117 39.578600 39.469553 39.359086 39.247271 39.134217 39.019996 38.904714
38.788440 38.671278 38.553292 38.434582 38.315209 38.195266 38.074809 37.953926
37.832666 37.711110 37.589302 37.467314 37.345185 37.222979 37.100727 36.978488
36.856284 36.734166 36.612151 36.490282 36.368569 36.247049 36.125725 36.004625
35.883750 35.763120 35.642729 35.522593 35.402701 35.283063 35.163663 35.044506
34.925574 34.806865 34.688360 34.570051 34.451919 34.333951 34.216125 34.098428
33.980834 33.863328 33.745886 33.628488 33.511111
33.888889 34.039332 34.189799 34.340315 34.490903 34.641588 34.792389 34.943333
35.094434 35.245717 35.397193 35.548886 35.700800 35.852958 36.005357 36.158017
36.310930 36.464109 36.617541 36.771234 36.925166 37.079340 37.233726 37.388321
37.543087 37.698012 37.853049 38.008180 38.163348 38.318527 38.473651 38.628684
38.783552 38.938211 39.092576 39.246596 39.400176 39.553257 39.705735 39.857543
40.008571 40.158743 40.307941 40.456085 40.603051 40.748753 40.893061 41.035886
41.177097 41.316600 41.454262 41.589990 41.723650 41.855149 41.984356 42.111180
42.235493 42.357208 42.476202 42.592392 42.705663 42.815938 42.923109 43.027107
43.127833 43.225223 43.319191 43.409679 43.496611 43.579938 43.659592 43.735534
43.807705 43.876073 43.940588 44.001225 44.057944 44.110724 44.159533 44.204356
44.245167 44.281957 44.314704 44.343403 44.368039 44.388608 44.405099 44.417512
44.425839 44.430081 44.430237 44.426306 44.418291 44.406194 44.390022 44.369778
44.345472 44.317111 44.284709 44.248275 44.207829 44.163383 44.114965 44.062589
44.006289 43.946087 43.882023 43.814126 43.742445 43.667013 43.587890 43.505118
43.418765 43.328879 43.235541 43.138807 43.038766 42.935482 42.829054 42.719554
42.607091 42.491742 42.373624 42.252821 42.129456 42.003618 41.875435 41.745000
41.612444 41.477862 41.341389 41.203118 41.063184 40.921681 40.778740 40.634454
40.488951 40.342319 40.194682 40.046121 39.896757 39.746663 39.595953 39.444692
39.292987 39.140896 38.988515 38.835895 38.683123 38.530240 38.377326 38.224412
38.071568 37.918817 37.766219 37.613791 37.461580 37.309597 37.157881 37.006434
36.855288 36.704437 36.553903 36.403678 36.253775 36.104180 35.954898 35.805911
35.657219 35.508798 35.360644 35.212729 35.065044 34.917559 34.770260 34.623116
34.476108 34.329207 34.182389 34.035625 33.888889
34.266667 34.447225 34.627813 34.808460 34.989196 35.170046 35.351042 35.532205
35.713565 35.895140 36.076958 36.259029 36.441380 36.624016 36.806958 36.990204
37.173773 37.357652 37.541854 37.726360 37.911176 38.096271 38.281645 38.467258
38.653101 38.839124 39.025309 39.211593 39.397951 39.584308 39.770628 39.956826
40.142855 40.328619 40.514061 40.699072 40.883587 41.067486 41.250692 41.433077
41.614555 41.794987 41.974281 42.152289 42.328912 42.503996 42.677435 42.849071
43.018795 43.186446 43.351910 43.515028 43.675686 43.833724 43.989030 44.141449
44.290871 44.437147 44.580173 44.719805 44.855947 44.988464 45.117267 45.242234
45.363283 45.480301 45.593219 45.701936 45.806391 45.906494 46.002196 46.093419
46.180122 46.262239 46.339737 46.412562 46.480688 46.544071 46.602691 46.656514
46.705525 46.749698 46.789023 46.823479 46.853061 46.877755 46.897556 46.912457
46.922456 46.927548 46.927734 46.923014 46.913390 46.898867 46.879448 46.855143
46.825957 46.791905 46.752994 46.709247 46.660674 46.607304 46.549151 46.486252
46.418628 46.346325 46.269368 46.187815 46.101699 46.011088 45.916024 45.816585
45.712824 45.604831 45.492667 45.376436 45.256208 45.132097 45.004186 44.872599
44.737426 44.598804 44.456829 44.311646 44.163361 44.012125 43.858047 43.701286
43.541954 43.380211 43.216172 43.050001 42.881808 42.711758 42.539961 42.366575
42.191708 42.015514 41.838093 41.659595 41.480112 41.299785 41.118699 40.936986
40.754720 40.572023 40.388962 40.205645 40.022130 39.838515 39.654845 39.471207
39.287638 39.104211 38.920953 38.737927 38.555149 38.372671 38.190501 38.008680
37.827207 37.646113 37.465389 37.285057 37.105101 36.925533 36.746333 36.567503
36.389020 36.210878 36.033047 35.855518 35.678257 35.501248 35.324457 35.147860
34.971423 34.795119 34.618912 34.442773 34.266667
34.644444 34.855133 35.065855 35.276649 35.487544 35.698580 35.909782 36.121188
36.332821 36.544715 36.756887 36.969370 37.182174 37.395327 37.608830 37.822709
38.036954 38.251586 38.466585 38.681964 38.897694 39.113779 39.330177 39.546886
39.763850 39.981057 40.198439 40.415972 40.633577 40.851217 41.068799 41.286275
41.503540 41.720532 41.937132 42.153268 42.368807 42.583664 42.797696 43.010806
43.222837 43.433686 43.643183 43.851217 44.057609 44.262240 44.464926 44.665540
44.863895 45.059860 45.253245 45.443918 45.631690 45.816428 45.997946 46.176115
46.350754 46.521739 46.688897 46.852109 47.011214 47.166102 47.316621 47.462673
47.604119 47.740870 47.872803 47.999840 48.121872 48.238832 48.350626 48.457198
48.558468 48.654391 48.744899 48.829958 48.909512 48.983535 49.051981 49.114832
49.172054 49.223632 49.269540 49.309769 49.344301 49.373130 49.396244 49.413640
49.425310 49.431254 49.431470 49.425960 49.414726 49.397770 49.375102 49.346725
49.312653 49.272895 49.227469 49.176387 49.119676 49.057351 48.989449 48.915990
48.837021 48.752569 48.662692 48.567426 48.466841 48.360981 48.249931 48.133746
48.012523 47.886329 47.755276 47.619442 47.478953 47.333899 47.184421 47.030618
46.872643 46.710607 46.544675 46.374966 46.201653 46.024863 45.844779 45.661530
45.475304 45.286235 45.094514 44.900274 44.703706 44.504942 44.304171 44.101521
43.897176 43.691259 43.483948 43.275355 43.065652 42.854942 42.643385 42.431076
42.218161 42.004725 41.790903 41.576766 41.362435 41.147971 40.933482 40.719014
40.504663 40.290463 40.076496 39.862785 39.649398 39.436348 39.223689 39.011425
38.799596 38.588197 38.377258 38.166765 37.956736 37.747149 37.538015 37.329304
37.121015 36.913118 36.705601 36.498428 36.291583 36.085025 35.878732 35.672663
35.466787 35.261064 35.055459 34.849932 34.644444
35.022222 35.263055 35.503930 35.744884 35.985961 36.227194 36.468627 36.710290
36.952224 37.194452 37.437014 37.679926 37.923223 38.166912 38.411025 38.655559
38.900538 39.145949 39.391811 39.638096 39.884814 40.131928 40.379435 40.627285
40.875465 41.123909 41.372595 41.621439 41.870408 42.119402 42.368374 42.617210
42.865849 43.114160 43.362068 43.609428 43.856150 44.102076 44.347102 44.591054
44.833817 45.075206 45.315093 45.553282 45.789635 46.023948 46.256075 46.485805
46.712987 46.937405 47.158906 47.377272 47.592348 47.803921 48.011837 48.215886
48.415920 48.611736 48.803194 48.990101 49.172325 49.349687 49.522066 49.689295
49.851267 50.007832 50.158894 50.304320 50.444029 50.577902 50.705873 50.827841
50.943749 51.053514 51.157092 51.254412 51.345442 51.430124 51.508434 51.580328
51.645788 51.704780 51.757292 51.803301 51.842797 51.875765 51.902200 51.922092
51.935438 51.942234 51.942481 51.936179 51.923329 51.903939 51.878012 51.845560
51.806588 51.761117 51.709154 51.650727 51.585849 51.514556 51.436867 51.352828
51.262465 51.165838 51.062981 50.953965 50.838838 50.717684 50.590561 50.457572
50.318787 50.174324 50.024266 49.868749 49.707870 49.541781 49.370591 49.194469
49.013535 48.827973 48.637915 48.443556 48.245037 48.042565 47.836286 47.626416
47.413105 47.196572 46.976973 46.754526 46.529385 46.301770 46.071831 45.839782
45.605769 45.369999 45.132610 44.893800 44.653696 44.412488 44.170289 43.927277
43.683552 43.439279 43.194545 42.949497 42.704212 42.458819 42.213381 41.968013
41.722762 41.477729 41.232946 40.988498 40.744406 40.500739 40.257505 40.014760
39.772500 39.530766 39.289545 39.048866 38.808706 38.569081 38.329962 38.091353
37.853218 37.615551 37.378312 37.141484 36.905025 36.668909 36.433090 36.197538
35.962204 35.727051 35.492032 35.257105 35.022222
35.400000 35.670996 35.942038 36.213174 36.484446 36.755903 37.027581 37.299531
37.571781 37.844379 38.117348 38.390730 38.664540 38.938817 39.213562 39.488810
39.764551 40.040811 40.317567 40.594838 40.872585 41.150817 41.429482 41.708574
41.988027 42.267823 42.547878 42.828160 43.108569 43.389057 43.669505 43.949853
44.229963 44.509758 44.789083 45.067844 45.345871 45.623053 45.899203 46.174197
46.447831 46.719968 46.990392 47.258951 47.525419 47.789635 48.051362 48.310431
48.566601 48.819696 49.069473 49.315754 49.558294 49.796918 50.031384 50.261522
50.487097 50.707944 50.923838 51.134626 51.340095 51.540102 51.734452 51.923015
52.105613 52.282130 52.452407 52.616344 52.773801 52.924694 53.068900 53.206352
53.336946 53.460627 53.577309 53.686950 53.789481 53.884870 53.973062 54.054034
54.127745 54.194178 54.253303 54.305110 54.349575 54.386694 54.416453 54.438847
54.453870 54.461521 54.461798 54.454701 54.440235 54.418403 54.389214 54.352673
54.308797 54.257592 54.199085 54.133285 54.060228 53.979929 53.892435 53.797767
53.695986 53.587122 53.471249 53.348410 53.218694 53.082156 52.938903 52.789004
52.632585 52.469729 52.300581 52.125242 51.943873 51.756592 51.563578 51.364964
51.160947 50.951671 50.737351 50.518143 50.294273 50.065908 49.833283 49.596573
49.356020 49.111800 48.864163 48.613284 48.359412 48.102720 47.843455 47.581786
47.317951 47.052112 46.784499 46.515262 46.244620 45.972712 45.699744 45.425838
45.151186 44.875896 44.600142 44.324018 44.047681 43.771206 43.494734 43.218325
42.942100 42.666105 42.390442 42.115142 41.840290 41.565903 41.292049 41.018731
40.746001 40.473852 40.202319 39.931383 39.661068 39.391344 39.122220 38.853661
38.585663 38.318184 38.051209 37.784690 37.518605 37.252900 36.987545 36.722486
36.457682 36.193080 35.928635 35.664291 35.400000
35.777778 36.078955 36.380185 36.681519 36.983011 37.284706 37.586660 37.888911
38.191514 38.494499 38.797917 39.101790 39.406164 39.711050 40.016489 40.322479
40.629052 40.936194 41.243928 41.552224 41.861095 42.170494 42.480422 42.790816
43.101662 43.412878 43.724436 44.036236 44.348233 44.660306 44.972396 45.284359
45.596119 45.907514 46.218448 46.528740 46.838276 47.146856 47.454349 47.760537
48.065272 48.368320 48.669520 48.968622 49.265451 49.559747 49.851325 50.139916
50.425327 50.707283 50.985588 51.259965 51.530217 51.796071 52.057329 52.313727
52.565073 52.811111 53.051660 53.286477 53.515393 53.738181 53.954688 54.164705
54.368094 54.564668 54.754306 54.936843 55.112176 55.280159 55.440710 55.593704
55.739073 55.876714 56.006574 56.128570 56.242661 56.348780 56.446899 56.536966
56.618961 56.692846 56.758607 56.816217 56.865669 56.906942 56.940034 56.964933
56.981638 56.990143 56.990449 56.982558 56.966470 56.942194 56.909732 56.869099
56.820300 56.763357 56.698278 56.625097 56.543825 56.454505 56.357158 56.251839
56.138578 56.017446 55.888482 55.751775 55.607379 55.455400 55.295906 55.129026
54.954844 54.773508 54.585122 54.389857 54.187831 53.979238 53.764214 53.542973
53.315669 53.082532 52.843731 52.599513 52.350060 52.095632 51.836419 51.572692
51.304647 51.032560 50.756631 50.477138 50.194278 49.908330 49.619487 49.328020
49.034116 48.738037 48.439959 48.140134 47.838723 47.535965 47.232006 46.927067
46.621279 46.314845 46.007878 45.700563 45.392994 45.085335 44.777664 44.470124
44.162775 43.855740 43.549061 43.242842 42.937109 42.631945 42.327362 42.023425
41.720131 41.417528 41.115599 40.814377 40.513833 40.213985 39.914796 39.616267
39.318354 39.021046 38.724291 38.428068 38.132321 37.837016 37.542095 37.247517
36.953221 36.659157 36.365266 36.071493 35.777778
36.155556 36.486934 36.818370 37.149925 37.481653 37.813616 38.145860 38.478449
38.811420 39.144835 39.478721 39.813136 40.148096 40.483653 40.819812 41.156615
41.494054 41.832161 42.170913 42.510330 42.850373 43.191050 43.532300 43.874120
44.216428 44.559205 44.902349 45.245822 45.589503 45.933334 46.277172 46.620940
46.964473 47.307674 47.650354 47.992398 48.333594 48.673809 49.012809 49.350441
49.686454 50.020676 50.352839 50.682755 51.010141 51.334797 51.656428 51.974824
52.289681 52.600782 52.907821 53.210576 53.508743 53.802100 54.090347 54.373268
54.650572 54.922053 55.187431 55.446512 55.699035 55.944820 56.183627 56.415292
56.639599 56.856403 57.065510 57.266798 57.460095 57.645300 57.822266 57.990910
58.151110 58.302801 58.445881 58.580302 58.705982 58.822887 58.930954 59.030157
59.120450 59.201816 59.274222 59.337657 59.392098 59.437540 59.473967 59.501378
59.519764 59.529126 59.529462 59.520772 59.503062 59.476333 59.440596 59.395856
59.342131 59.279426 59.207770 59.127173 59.037674 58.939290 58.832071 58.716044
58.591274 58.457800 58.315705 58.165039 58.005907 57.838376 57.662571 57.478578
57.286545 57.086576 56.878846 56.663479 56.440672 56.210570 55.973394 55.729309
55.478559 55.221323 54.957868 54.688389 54.413167 54.132410 53.846413 53.555394
53.259655 52.959418 52.654992 52.346600 52.034549 51.719060 51.400437 51.078893
50.754724 50.428133 50.099404 49.768727 49.436372 49.102511 48.767398 48.431188
48.094115 47.756314 47.417999 47.079285 46.740363 46.401330 46.062353 45.723508
45.384941 45.046709 44.708934 44.371654 44.034972 43.698905 43.363537 43.028870
42.694965 42.361810 42.029448 41.697854 41.367053 41.037008 40.707729 40.379169
40.051321 39.724133 39.397584 39.071614 38.746191 38.421252 38.096753 37.772629
37.448827 37.125280 36.801931 36.478710 36.155556
36.533333 36.894931 37.256596 37.618390 37.980381 38.342627 38.705196 39.068138
39.431520 39.795381 40.159786 40.524763 40.890370 41.256623 41.623573 41.991220
42.359608 42.728719 43.098586 43.469173 43.840499 44.212511 44.585212 44.958526
45.332442 45.706861 46.081752 46.456996 46.832540 47.208241 47.584026 47.959726
48.335248 48.710397 49.085059 49.459013 49.832123 50.204147 50.574923 50.944189
51.311762 51.677360 52.040782 52.401725 52.759974 53.115211 53.467208 53.815635
54.160254 54.500729 54.836816 55.168177 55.494567 55.815650 56.131185 56.440845
56.744394 57.041518 57.331994 57.615526 57.891905 58.160856 58.422189 58.675653
58.921080 59.158243 59.386997 59.607142 59.818558 60.021071 60.214582 60.398946
60.574083 60.739875 60.896261 61.043144 61.180482 61.308198 61.426262 61.534618
61.633246 61.722103 61.801180 61.870444 61.929893 61.979504 62.019278 62.049201
62.069274 62.079492 62.079856 62.070369 62.051029 62.021847 61.982824 61.933975
61.875303 61.806833 61.728571 61.640551 61.542785 61.435320 61.318177 61.191416
61.055069 60.909216 60.753901 60.589226 60.415250 60.232099 60.039852 59.838659
59.628620 59.409911 59.182657 58.947060 58.703267 58.451508 58.191952 57.924855
57.650407 57.368889 57.080508 56.785566 56.484287 56.176989 55.863908 55.545374
55.221631 54.893017 54.559780 54.222260 53.880701 53.535445 53.186729 52.834887
52.480147 52.122831 51.763154 51.401424 51.037839 50.672689 50.306152 49.938498
49.569886 49.200561 48.830660 48.460406 48.089914 47.719380 47.348897 46.978638
46.608672 46.239147 45.870113 45.501693 45.133915 44.766879 44.400596 44.035143
43.670513 43.306762 42.943868 42.581867 42.220723 41.860454 41.501013 41.142399
40.784557 40.427471 40.071077 39.715346 39.360208 39.005621 38.651512 38.297829
37.944497 37.591454 37.238626 36.885944 36.533333
36.911111 37.302950 37.694861 38.086918 38.479189 38.871750 39.264659 39.657994
40.051802 40.446158 40.841100 41.236697 41.632974 42.029993 42.427763 42.826337
43.225710 43.625922 44.026948 44.428817 44.831483 45.234959 45.639177 46.044134
46.449738 46.855965 47.262700 47.669899 48.077419 48.485194 48.893056 49.300914
49.708572 50.115917 50.522725 50.928857 51.334063 51.738180 52.140932 52.542134
52.941484 53.338775 53.733685 54.125986 54.515338 54.901497 55.284107 55.662911
56.037545 56.407741 56.773130 57.133440 57.488304 57.837449 58.180515 58.517235
58.847259 59.170333 59.486123 59.794391 60.094822 60.387200 60.671235 60.946733
61.213431 61.471161 61.719690 61.958875 62.188514 62.408488 62.618628 62.818837
63.008976 63.188971 63.358708 63.518134 63.667160 63.805749 63.933831 64.051385
64.158359 64.254740 64.340492 64.415608 64.480065 64.533860 64.576979 64.609422
64.631181 64.642258 64.642651 64.632361 64.611394 64.579749 64.537440 64.484466
64.420847 64.346587 64.261714 64.166236 64.060193 63.943600 63.816513 63.678955
63.531000 63.372685 63.204106 63.025316 62.836434 62.637535 62.428763 62.210215
61.982065 61.744435 61.497529 61.241492 60.976562 60.702909 60.420798 60.130426
59.832086 59.525997 59.212477 58.891765 58.564200 58.230035 57.889628 57.543243
57.191247 56.833912 56.471610 56.104613 55.733296 55.357925 54.978869 54.596387
54.210837 53.822464 53.431612 53.038509 52.643481 52.246736 51.848578 51.449193
51.048860 50.647743 50.246094 49.844051 49.441843 49.039581 48.637465 48.235583
47.834108 47.433105 47.032717 46.632988 46.234036 45.835882 45.438619 45.042250
44.646842 44.252381 43.858913 43.466406 43.074887 42.684309 42.294681 41.905943
41.518087 41.131045 40.744791 40.359251 39.974384 39.590112 39.206382 38.823110
38.440236 38.057674 37.675354 37.293192 36.911111
37.288889 37.710987 38.133167 38.555505 38.978084 39.400974 39.824259 40.248001
40.672281 41.097149 41.522684 41.948922 42.375935 42.803745 43.232415 43.661950
44.092402 44.523757 44.956054 45.389258 45.823391 46.258397 46.694280 47.130958
47.568417 48.006547 48.445314 48.884580 49.324286 49.764266 50.204437 50.644603
51.084653 51.524362 51.963593 52.402092 52.839693 53.276113 53.711161 54.144525
54.575990 55.005218 55.431970 55.855887 56.276709 56.694058 57.107657 57.517115
57.922143 58.322339 58.717408 59.106946 59.490656 59.868136 60.239092 60.603135
60.959978 61.309248 61.650675 61.983904 62.308687 62.624695 62.931703 63.229413
63.517624 63.796073 64.064588 64.322937 64.570978 64.808514 65.035431 65.251564
65.456824 65.651079 65.834263 66.006271 66.167058 66.316543 66.454699 66.581463
66.696822 66.800732 66.893186 66.974155 67.043638 67.101616 67.148090 67.183051
67.206501 67.218435 67.218855 67.207765 67.185163 67.151058 67.105450 67.048353
66.979768 66.899717 66.808204 66.705263 66.590902 66.465168 66.328080 66.179701
66.020062 65.849249 65.667307 65.474347 65.270436 65.055711 64.830263 64.594261
64.347819 64.091142 63.824372 63.547745 63.261434 62.965709 62.660771 62.346922
62.024389 61.693505 61.354520 61.007793 60.653595 60.292305 59.924209 59.549702
59.169079 58.782745 58.390999 57.994248 57.592790 57.187031 56.777258 56.363868
55.947139 55.527454 55.105070 54.680353 54.253542 53.824978 53.394876 52.963553
52.531198 52.098101 51.664424 51.230426 50.796244 50.362106 49.928122 49.494491
49.061294 48.628702 48.196771 47.765641 47.335345 46.905997 46.477605 46.050257
45.623941 45.198720 44.774566 44.351515 43.929523 43.508608 43.088710 42.669827
42.251889 41.834874 41.418704 41.003342 40.588703 40.174735 39.761348 39.348478
38.936034 38.523943 38.112110 37.700456 37.288889
37.666667 38.119045 38.571510 39.024152 39.477053 39.930305 40.383980 40.838170
41.292936 41.748367 42.204512 42.661454 43.119226 43.577904 44.037504 44.498091
44.959661 45.422267 45.885883 46.350547 46.816210 47.282890 47.750514 48.219080
48.688486 49.158709 49.629617 50.101163 50.573184 51.045606 51.518236 51.990971
52.463584 52.935944 53.407793 53.878969 54.349181 54.818238 55.285818 55.751701
56.215537 56.677078 57.135946 57.591870 58.044450 58.493393 58.938280 59.378803
59.814529 60.245139 60.670195 61.089371 61.502228 61.908442 62.307583 62.699332
63.083274 63.459104 63.826426 64.184956 64.534325 64.874272 65.204461 65.524659
65.834563 66.133973 66.422623 66.700344 66.966909 67.222181 67.465968 67.698166
67.918617 68.127244 68.323923 68.508599 68.681178 68.841624 68.989868 69.125890
69.249640 69.361110 69.460267 69.547109 69.621615 69.683787 69.733614 69.771099
69.796236 69.809029 69.809477 69.797582 69.773348 69.736774 69.687871 69.626637
69.553088 69.467225 69.369072 69.258634 69.135948 69.001025 68.853921 68.694654
68.523302 68.339900 68.144549 67.937305 67.718296 67.487602 67.245385 66.991751
66.726898 66.450964 66.164181 65.866719 65.558849 65.240774 64.912802 64.575164
64.228204 63.872184 63.507478 63.134370 62.753263 62.364460 61.968384 61.565353
61.155802 60.740058 60.318562 59.891643 59.459741 59.023179 58.582392 58.137690
57.689496 57.238103 56.783916 56.327208 55.868359 55.407616 54.945337 54.481739
54.017150 53.551759 53.085862 52.619620 52.153295 51.687018 51.221019 50.755398
50.290353 49.825957 49.362375 48.899653 48.437925 47.977213 47.517619 47.059144
46.601863 46.145754 45.690868 45.237163 44.784665 44.333318 43.883127 43.434019
42.985981 42.538929 42.092831 41.647596 41.203174 40.759469 40.316417 39.873918
39.431897 38.990251 38.548897 38.107733 37.666667
38.044444 38.527118 39.009890 39.492850 39.976101 40.459727 40.943828 41.428478
41.913777 42.399786 42.886599 43.374263 43.862866 44.352437 44.843053 45.334725
45.827517 46.321417 46.816475 47.312655 47.809990 48.308416 48.807944 49.308486
49.810027 50.312448 50.815711 51.319663 51.824239 52.329251 52.834606 53.340081
53.845550 54.350757 54.855543 55.359616 55.862786 56.364724 56.865208 57.363877
57.860478 58.354619 58.846018 59.334255 59.819023 60.299880 60.776497 61.248415
61.715288 62.176646 62.632136 63.081282 63.523728 63.959003 64.386754 64.806523
65.217969 65.620652 66.014251 66.398351 66.772656 67.136784 67.490468 67.833365
68.165239 68.485788 68.794813 69.092051 69.377341 69.650462 69.911286 70.159632
70.395406 70.618464 70.828739 71.026120 71.210565 71.381992 71.540379 71.685665