# vtk DataFile Version 3.0
Steady-state temperature (Jacobi)
ASCII
DATASET STRUCTURED_POINTS
DIMENSIONS 181 181 1
ORIGIN 0.0 0.0 0.0
SPACING 0.05 0.05 1.0
POINT_DATA 32761
SCALARS Temperature float 1
LOOKUP_TABLE default
32.000000 32.000000 32.000000 32.000000 32.000000 32.000000 32.000000 32.000000
32.000000 32.000000 32.000000 32.000000 32.000000 32.000000 32.000000 32.000000
32.000000 32.000000 32.000000 32.000000 32.000000 32.000000 32.000000 32.000000
32.000000 32.000000 32.000000 32.000000 32.000000 32.000000 32.000000 32.000000
32.000000 32.000000 32.000000 32.000000 32.000000 32.000000 32.000000 32.000000
32.000000 32.000000 32.000000 32.000000 32.000000 32.000000 32.000000 32.000000
32.000000 32.000000 32.000000 32.000000 32.000000 32.000000 32.000000 32.000000
32.000000 32.000000 32.000000 32.000000 32.000000 32.000000 32.000000 32.000000
32.000000 32.000000 32.000000 32.000000 32.000000 32.000000 32.000000 32.000000
32.000000 32.000000 32.000000 32.000000 32.000000 32.000000 32.000000 32.000000
32.000000 32.000000 32.000000 32.000000 32.000000 32.000000 32.000000 32.000000
32.000000 32.000000 32.000000 32.000000 32.000000 32.000000 32.000000 32.000000
32.000000 32.000000 32.000000 32.000000 32.000000 32.000000 32.000000 32.000000
32.000000 32.000000 32.000000 32.000000 32.000000 32.000000 32.000000 32.000000
32.000000 32.000000 32.000000 32.000000 32.000000 32.000000 32.000000 32.000000
32.000000 32.000000 32.000000 32.000000 32.000000 32.000000 32.000000 32.000000
32.000000 32.000000 32.000000 32.000000 32.000000 32.000000 32.000000 32.000000
32.000000 32.000000 32.000000 32.000000 32.000000 32.000000 32.000000 32.000000
32.000000 32.000000 32.000000 32.000000 32.000000 32.000000 32.000000 32.000000
32.000000 32.000000 32.000000 32.000000 32.000000 32.000000 32.000000 32.000000
32.000000 32.000000 32.000000 32.000000 32.000000 32.000000 32.000000 32.000000
32.000000 32.000000 32.000000 32.000000 32.000000 32.000000 32.000000 32.000000
32.000000 32.000000 32.000000 32.000000 32.000000
32.377778 32.408651 32.439528 32.470413 32.501309 32.532220 32.563149 32.594099
32.625074 32.656077 32.687108 32.718173 32.749270 32.780404 32.811573 32.842779
32.874021 32.905301 32.936614 32.967963 32.999341 33.030749 33.062180 33.093633
33.125100 33.156578 33.188058 33.219534 33.250997 33.282439 33.313849 33.345217
33.376531 33.407781 33.438949 33.470027 33.500994 33.531840 33.562545 33.593094
33.623467 33.653649 33.683617 33.713355 33.742840 33.772054 33.800974 33.829580
33.857849 33.885762 33.913294 33.940427 33.967135 33.993400 34.019198 34.044510
34.069312 34.093588 34.117315 34.140475 34.163048 34.185018 34.206366 34.227076
34.247132 34.266520 34.285224 34.303233 34.320532 34.337113 34.352961 34.368069
34.382427 34.396028 34.408862 34.420924 34.432207 34.442706 34.452416 34.461334
34.469454 34.476775 34.483292 34.489004 34.493910 34.498006 34.501293 34.503769
34.505433 34.506286 34.506326 34.505554 34.503971 34.501577 34.498372 34.494359
34.489539 34.483912 34.477483 34.470252 34.462224 34.453401 34.443789 34.433389
34.422210 34.410254 34.397530 34.384044 34.369804 34.354817 34.339096 34.322647
34.305483 34.287615 34.269058 34.249822 34.229924 34.209377 34.188199 34.166405
34.144014 34.121043 34.097513 34.073440 34.048848 34.023754 33.998182 33.972150
33.945683 33.918799 33.891525 33.863878 33.835883 33.807560 33.778932 33.750019
33.720844 33.691426 33.661787 33.631943 33.601918 33.571726 33.541389 33.510921
33.480341 33.449661 33.418900 33.388069 33.357183 33.326253 33.295293 33.264311
33.233318 33.202322 33.171334 33.140358 33.109403 33.078473 33.047574 33.016710
32.985885 32.955101 32.924361 32.893665 32.863017 32.832414 32.801858 32.771346
32.740880 32.710455 32.680072 32.649726 32.619416 32.589138 32.558889 32.528664
32.498461 32.468275 32.438102 32.407938 32.377778
32.755556 32.817304 32.879060 32.940831 33.002625 33.064448 33.126309 33.188211
33.250164 33.312171 33.374239 33.436370 33.498570 33.560839 33.623183 33.685599
33.748090 33.810653 33.873289 33.935990 33.998756 34.061577 34.124451 34.187363
34.250310 34.313273 34.376246 34.439208 34.502148 34.565043 34.627878 34.690628
34.753273 34.815785 34.878142 34.940310 35.002267 35.063974 35.125405 35.186520
35.247290 35.307671 35.367631 35.427126 35.486120 35.544568 35.602432 35.659664
35.716228 35.772073 35.827163 35.881447 35.934889 35.987438 36.039057 36.089699
36.139328 36.187897 36.235372 36.281709 36.326875 36.370830 36.413544 36.454978
36.495107 36.533895 36.571318 36.607346 36.641958 36.675127 36.706835 36.737059
36.765784 36.792991 36.818667 36.842796 36.865368 36.886370 36.905796 36.923633
36.939877 36.954520 36.967558 36.978984 36.988797 36.996991 37.003565 37.008518
37.011847 37.013552 37.013632 37.012089 37.008921 37.004132 36.997722 36.989695
36.980052 36.968798 36.955936 36.941473 36.925413 36.907765 36.888534 36.867732
36.845366 36.821450 36.795994 36.769015 36.740526 36.710546 36.679091 36.646185
36.611845 36.576099 36.538968 36.500485 36.460671 36.419564 36.377190 36.333587
36.288785 36.242827 36.195744 36.147581 36.098374 36.048167 35.996998 35.944916
35.891957 35.838171 35.783596 35.728282 35.672267 35.615601 35.558321 35.500476
35.442102 35.383246 35.323943 35.264239 35.204165 35.143765 35.083069 35.022117
34.960936 34.899562 34.838021 34.776346 34.714557 34.652685 34.590748 34.528773
34.466773 34.404772 34.342782 34.280822 34.218900 34.157033 34.095226 34.033491
33.971832 33.910259 33.848771 33.787377 33.726072 33.664863 33.603745 33.542720
33.481783 33.420932 33.360161 33.299468 33.238845 33.178287 33.117785 33.057335
32.996927 32.936554 32.876206 32.815877 32.755556
33.133333 33.225960 33.318598 33.411260 33.503955 33.596695 33.689490 33.782351
33.875285 33.968304 34.061412 34.154618 34.247925 34.341341 34.434865 34.528504
34.622251 34.716112 34.810078 34.904149 34.998314 35.092568 35.186896 35.281291
35.375731 35.470205 35.564688 35.659164 35.753601 35.847980 35.942263 36.036427
36.130429 36.224240 36.317813 36.411113 36.504088 36.596699 36.688889 36.780616
36.871816 36.962443 37.052432 37.141732 37.230274 37.318005 37.404852 37.490761
37.575659 37.659488 37.742174 37.823661 37.903874 37.982756 38.060235 38.136254
38.210745 38.283652 38.354909 38.424465 38.492256 38.558235 38.622343 38.684537
38.744764 38.802983 38.859148 38.913223 38.965167 39.014949 39.062533 39.107893
39.150999 39.191829 39.230357 39.266566 39.300436 39.331953 39.361099 39.387865
39.412238 39.434210 39.453770 39.470915 39.485637 39.497932 39.507795 39.515226
39.520220 39.522778 39.522899 39.520582 39.515831 39.508645 39.499028 39.486983
39.472515 39.455629 39.436332 39.414629 39.390533 39.364050 39.335195 39.303978
39.270418 39.234528 39.196330 39.155841 39.113089 39.068095 39.020891 38.971502
38.919967 38.866314 38.810589 38.752825 38.693072 38.631368 38.567769 38.502318
38.435074 38.366086 38.295417 38.223119 38.149260 38.073893 37.997090 37.918908
37.839418 37.758679 37.676765 37.593734 37.509659 37.424600 37.338628 37.251801
37.164189 37.075848 36.986845 36.897233 36.807076 36.716423 36.625336 36.533857
36.442044 36.349937 36.257588 36.165031 36.072315 35.979467 35.886531 35.793532
35.700505 35.607472 35.514463 35.421493 35.328590 35.235763 35.143035 35.050410
34.957907 34.865528 34.773284 34.681175 34.589209 34.497381 34.405696 34.314146
34.222733 34.131447 34.040286 33.949238 33.858299 33.767456 33.676700 33.586020
33.495404 33.404840 33.314316 33.223818 33.133333
33.511111 33.634621 33.758147 33.881703 34.005305 34.128967 34.252705 34.376529
34.500455 34.624490 34.748650 34.872938 34.997366 35.121937 35.246659 35.371529
35.496553 35.621724 35.747044 35.872500 35.998090 36.123795 36.249608 36.375506
36.501475 36.627484 36.753517 36.879534 37.005512 37.131406 37.257187 37.382801
37.508213 37.633363 37.758209 37.882683 38.006739 38.130301 38.253316 38.375704
38.497404 38.618331 38.738421 38.857582 38.975745 39.092817 39.208724 39.323368
39.436676 39.548548 39.658907 39.767654 39.874714 39.979987 40.083397 40.184850
40.284272 40.381570 40.476675 40.569499 40.659975 40.748024 40.833582 40.916577
40.996951 41.074639 41.149589 41.221743 41.291057 41.357479 41.420972 41.481490
41.539004 41.593475 41.644878 41.693182 41.738368 41.780409 41.819291 41.854994
41.887506 41.916812 41.942905 41.965772 41.985408 42.001806 42.014962 42.024872
42.031533 42.034944 42.035105 42.032016 42.025677 42.016093 42.003266 41.987201
41.967902 41.945379 41.919638 41.890691 41.858546 41.823221 41.784727 41.743085
41.698312 41.650433 41.599469 41.545453 41.488410 41.428380 41.365393 41.299496
41.230725 41.159136 41.084770 41.007691 40.927946 40.845606 40.760725 40.673381
40.583634 40.491567 40.397246 40.300760 40.202179 40.101598 39.999088 39.894748
39.788653 39.680902 39.571572 39.460764 39.348554 39.235042 39.120303 39.004436
38.887513 38.769629 38.650855 38.531281 38.410972 38.290015 38.168470 38.046418
37.923913 37.801029 37.677814 37.554337 37.430638 37.306780 37.182796 37.058741
36.934644 36.810550 36.686482 36.562480 36.438560 36.314753 36.191072 36.067541
35.944167 35.820967 35.697943 35.575109 35.452460 35.330005 35.207735 35.085654
34.963751 34.842025 34.720461 34.599054 34.477789 34.356657 34.235639 34.114726
33.993897 33.873139 33.752433 33.631763 33.511111
33.888889 34.043289 34.197708 34.352166 34.506682 34.661275 34.815961 34.970760
35.125683 35.280750 35.435969 35.591356 35.746916 35.902662 36.058593 36.214719
36.371034 36.527544 36.684236 36.841110 36.998146 37.155340 37.312665 37.470109
37.627637 37.785231 37.942848 38.100462 38.258021 38.415492 38.572814 38.729947
38.886818 39.043381 39.199555 39.355285 39.510481 39.665079 39.818984 39.972123
40.124393 40.275715 40.425978 40.575098 40.722960 40.869473 41.014517 41.157999
41.299796 41.439812 41.577923 41.714033 41.848017 41.979779 42.109197 42.236178
42.360604 42.482384 42.601404 42.717580 42.830806 42.941001 43.048068 43.151933
43.252508 43.349726 43.443507 43.533795 43.620518 43.703627 43.783061 43.858778
43.930726 43.998872 44.063171 44.123598 44.180115 44.232703 44.281333 44.325989
44.366649 44.403302 44.435932 44.464530 44.489085 44.509592 44.526043 44.538435
44.546765 44.551030 44.551231 44.547367 44.539441 44.527454 44.511414 44.491322
44.467189 44.439020 44.406828 44.370623 44.330422 44.286236 44.238091 44.186002
44.129999 44.070104 44.006354 43.938776 43.867416 43.792308 43.713506 43.631052
43.545008 43.455425 43.362375 43.265916 43.166129 43.063081 42.956862 42.847546
42.735232 42.620001 42.501960 42.381196 42.257822 42.131929 42.003637 41.873040
41.740261 41.605398 41.468574 41.329886 41.189461 41.047395 40.903811 40.758803
40.612492 40.464969 40.316349 40.166719 40.016189 39.864838 39.712771 39.560060
39.406802 39.253060 39.098925 38.944453 38.789724 38.634786 38.479710 38.324538
38.169330 38.014120 37.858960 37.703874 37.548908 37.394077 37.239419 37.084943
36.930676 36.776622 36.622802 36.469213 36.315868 36.162760 36.009896 35.857263
35.704862 35.552677 35.400704 35.248925 35.097329 34.945896 34.794613 34.643457
34.492411 34.341452 34.190560 34.039713 33.888889
34.266667 34.451964 34.637285 34.822653 35.008092 35.193623 35.379270 35.565051
35.750988 35.937094 36.123392 36.309889 36.496603 36.683537 36.870705 37.058104
37.245743 37.433611 37.621713 37.810029 37.998557 38.187269 38.376156 38.565181
38.754326 38.943545 39.132812 39.322069 39.511282 39.700383 39.889328 40.078037
40.266457 40.454499 40.642098 40.829154 41.015594 41.201308 41.386212 41.570187
41.753142 41.934948 42.115506 42.294679 42.472363 42.648414 42.822722 42.995141
43.165555 43.333816 43.499807 43.663377 43.824411 43.982759 44.138307 44.290910
44.440456 44.586805 44.729852 44.869463 45.005540 45.137958 45.266626 45.391430
45.512288 45.629097 45.741784 45.850257 45.954454 46.054294 46.149724 46.240676
46.327105 46.408954 46.486188 46.558758 46.626638 46.689789 46.748191 46.801812
46.850639 46.894648 46.933828 46.968163 46.997646 47.022265 47.042017 47.056893
47.066893 47.072013 47.072253 47.067614 47.058097 47.043706 47.024446 47.000324
46.971346 46.937525 46.898870 46.855397 46.807120 46.754063 46.696242 46.633689
46.566425 46.494492 46.417916 46.336748 46.251023 46.160802 46.066129 45.967074
45.863692 45.756064 45.644254 45.528355 45.408441 45.284617 45.156966 45.025602
44.890619 44.752142 44.610271 44.465139 44.316855 44.165558 44.011362 43.854412
43.694824 43.532748 43.368302 43.201636 43.032868 42.862148 42.689591 42.515346
42.339523 42.162266 41.983680 41.803905 41.623037 41.441208 41.258509 41.075060
40.890945 40.706275 40.521123 40.335590 40.149741 39.963665 39.777416 39.591074
39.404682 39.218310 39.031991 38.845783 38.659712 38.473825 38.288137 38.102687
37.917483 37.732553 37.547897 37.363535 37.179461 36.995686 36.812198 36.629001
36.446078 36.263427 36.081026 35.898867 35.716925 35.535186 35.353624 35.172221
34.990948 34.809783 34.628699 34.447669 34.266667
34.644444 34.860648 35.076879 35.293167 35.509538 35.726020 35.942637 36.159416
36.376376 36.593543 36.810930 37.028561 37.246443 37.464595 37.683018 37.901725
38.120709 38.339979 38.559516 38.779324 38.999374 39.219662 39.440149 39.660820
39.881627 40.102544 40.323512 40.544496 40.765422 40.986245 41.206879 41.427267
41.647311 41.866942 42.086049 42.304552 42.522327 42.739284 42.955286 43.170233
43.383979 43.596411 43.807374 44.016748 44.224369 44.430110 44.633802 44.835310
45.034463 45.231122 45.425112 45.616296 45.804499 45.989582 46.171375 46.349743
46.524519 46.695575 46.862750 47.025925 47.184948 47.339706 47.490062 47.635913
47.777131 47.913627 48.045285 48.172028 48.293755 48.410398 48.521872 48.628119
48.729067 48.824670 48.914867 48.999623 49.078888 49.152634 49.220824 49.283436
49.340440 49.391823 49.437562 49.477647 49.512063 49.540803 49.563858 49.581223
49.592895 49.598870 49.599150 49.593733 49.582624 49.565824 49.543341 49.515179
49.481351 49.441865 49.396737 49.345978 49.289614 49.227659 49.160145 49.087094
49.008548 48.924533 48.835103 48.740293 48.640166 48.534770 48.424179 48.308451
48.187673 48.061915 47.931279 47.795844 47.655727 47.511019 47.361849 47.208320
47.050572 46.888720 46.722915 46.553280 46.379975 46.203130 46.022914 45.839461
45.652946 45.463505 45.271316 45.076517 44.879285 44.679758 44.478110 44.274476
44.069025 43.861886 43.653225 43.443161 43.231851 43.019408 42.805978 42.591663
42.376601 42.160881 41.944630 41.727926 41.510882 41.293565 41.076077 40.858472
40.640838 40.423220 40.205692 39.988288 39.771068 39.554057 39.337305 39.120823
38.904652 38.688794 38.473279 38.258100 38.043278 37.828799 37.614673 37.400882
37.187426 36.974283 36.761445 36.548885 36.336590 36.124529 35.912683 35.701019
35.489514 35.278134 35.066851 34.855631 34.644444
35.022222 35.269342 35.516494 35.763711 36.011027 36.258469 36.506072 36.753859
37.001862 37.250101 37.498604 37.747383 37.996464 38.245852 38.495567 38.745604
38.995978 39.246675 39.497702 39.749034 40.000669 40.252571 40.504729 40.757093
41.009643 41.262314 41.515075 41.767849 42.020591 42.273209 42.525646 42.777795
43.029587 43.280900 43.531649 43.781700 44.030955 44.279266 44.526521 44.772560
45.017258 45.260443 45.501981 45.741689 45.979424 46.214993 46.448246 46.678986
46.907057 47.132256 47.354427 47.573365 47.788913 48.000870 48.209079 48.413345
48.613516 48.809404 49.000864 49.187719 49.369832 49.547038 49.719213 49.886205
50.047903 50.204168 50.354903 50.499987 50.639335 50.772841 50.900435 51.022027
51.137558 51.246953 51.350167 51.447137 51.537829 51.622193 51.700203 51.771821
51.837028 51.895795 51.948110 51.993952 52.033313 52.066178 52.092543 52.112400
52.125746 52.132578 52.132896 52.126701 52.113995 52.094783 52.069069 52.036864
51.998173 51.953013 51.901394 51.843339 51.778861 51.707993 51.630753 51.547183
51.457310 51.361185 51.258846 51.150356 51.035762 50.915142 50.788554 50.656093
50.517828 50.373869 50.224301 50.069247 49.908807 49.743120 49.572298 49.396497
49.215840 49.030497 48.840602 48.646337 48.447847 48.245322 48.038913 47.828820
47.615199 47.398253 47.178141 46.955067 46.729191 46.500716 46.269797 46.036636
45.801382 45.564229 45.325320 45.084842 44.842926 44.599750 44.355435 44.110144
43.863989 43.617119 43.369632 43.121665 42.873301 42.624662 42.375820 42.126881
41.877902 41.628976 41.380146 41.131490 40.883041 40.634861 40.386971 40.139420
39.892219 39.645403 39.398973 39.152954 38.907337 38.662135 38.417332 38.172932
37.928911 37.685264 37.441963 37.198994 36.956325 36.713935 36.471789 36.229860
35.988110 35.746508 35.505017 35.263601 35.022222
35.400000 35.678046 35.956129 36.234289 36.512558 36.790977 37.069575 37.348391
37.627449 37.906785 38.186417 38.466377 38.746674 39.027336 39.308364 39.589778
39.871569 40.153750 40.436299 40.719220 41.002480 41.286072 41.569949 41.854094
42.138443 42.422967 42.707588 42.992263 43.276898 43.561434 43.845762 44.129809
44.413448 44.696591 44.979094 45.260853 45.541711 45.821547 46.100187 46.377498
46.653291 46.927421 47.199684 47.469924 47.737928 48.003529 48.266506 48.526684
48.783836 49.037784 49.288298 49.535197 49.778252 50.017283 50.252065 50.482423
50.708138 50.929041 51.144926 51.355632 51.560965 51.760777 51.954888 52.143165
52.325444 52.501606 52.671507 52.835043 52.992087 53.142552 53.286328 53.423344
53.553507 53.676760 53.793028 53.902266 54.004413 54.099436 54.187287 54.267942
54.341365 54.407540 54.466440 54.518055 54.562366 54.599366 54.629045 54.651398
54.666420 54.674110 54.674467 54.667491 54.653187 54.631556 54.602608 54.566347
54.522787 54.471937 54.413818 54.348442 54.275837 54.196022 54.109036 54.014904
53.913676 53.805388 53.690101 53.567864 53.438753 53.302828 53.160183 53.010891
52.855065 52.692792 52.524203 52.349402 52.168536 51.981726 51.789137 51.590904
51.387210 51.178202 50.964078 50.744999 50.521174 50.292773 50.060017 49.823082
49.582195 49.337537 49.089338 48.837781 48.583098 48.325467 48.065117 47.802224
47.537011 47.269645 47.000340 46.729255 46.456593 46.182500 45.907168 45.630729
45.353360 45.075178 44.796346 44.516967 44.237185 43.957088 43.676804 43.396406
43.116006 42.835659 42.555461 42.275456 41.995720 41.716284 41.437209 41.158513
40.880243 40.602403 40.325028 40.048112 39.771675 39.495703 39.220204 38.945155
38.670554 38.396372 38.122597 37.849194 37.576143 37.303404 37.030950 36.758739
36.486739 36.214905 35.943199 35.671578 35.400000
35.777778 36.086761 36.395788 36.704899 37.014138 37.323543 37.633157 37.943012
38.253150 38.563596 38.874388 39.185544 39.497096 39.809053 40.121442 40.434258
40.747523 41.061219 41.375357 41.689908 42.004871 42.320202 42.635889 42.951872
43.268125 43.584571 43.901169 44.217826 44.534485 44.851033 45.167397 45.483447
45.799093 46.114184 46.428615 46.742215 47.054861 47.366367 47.676591 47.985331
48.292429 48.597668 48.900877 49.201823 49.500325 49.796138 50.089071 50.378871
50.665341 50.948223 51.227315 51.502359 51.773152 52.039438 52.301018 52.557641
52.809114 53.055199 53.295709 53.530420 53.759159 53.981716 54.197933 54.407619
54.610632 54.806800 54.996001 55.178081 55.352937 55.520436 55.680492 55.832993
55.977869 56.115029 56.244416 56.365957 56.479611 56.585318 56.683049 56.772760
56.854428 56.928022 56.993528 57.050923 57.100197 57.141337 57.174337 57.199189
57.215891 57.224439 57.224834 57.217076 57.201168 57.177117 57.144924 57.104604
57.056160 56.999613 56.934971 56.862262 56.781499 56.692720 56.595947 56.491227
56.378592 56.258103 56.129803 55.993771 55.850061 55.698770 55.539968 55.373770
55.200265 55.019587 54.831842 54.637185 54.435740 54.227683 54.013155 53.792352
53.565431 53.332607 53.094051 52.849994 52.600619 52.346170 52.086841 51.822883
51.554498 51.281943 51.005423 50.725197 50.441470 50.154499 49.864485 49.571681
49.276279 48.978526 48.678605 48.376748 48.073128 47.767965 47.461416 47.153685
46.844914 46.535290 46.224939 45.914029 45.602668 45.291008 44.979137 44.667188
44.355233 44.043387 43.731704 43.420280 43.109154 42.798403 42.488053 42.178164
41.868746 41.559844 41.251456 40.943612 40.636299 40.329532 40.023290 39.717574
39.412355 39.107624 38.803344 38.499496 38.196038 37.892942 37.590162 37.287664
36.985399 36.683326 36.381396 36.079563 35.777778
36.155556 36.495488 36.835467 37.175544 37.515762 37.856172 38.196811 38.537729
38.878959 39.220545 39.562512 39.904902 40.247728 40.591027 40.934800 41.279076
41.623845 41.969124 42.314890 42.661150 43.007865 43.355028 43.702584 44.050512
44.398739 44.747228 45.095887 45.444662 45.793441 46.142153 46.490665 46.838887
47.186665 47.533890 47.880387 48.226028 48.570616 48.914007 49.255983 49.596380
49.934964 50.271553 50.605898 50.937802 51.267000 51.593283 51.916377 52.236063
52.552059 52.864139 53.172019 53.475469 53.774206 54.068002 54.356579 54.639714
54.917136 55.188634 55.453949 55.712882 55.965191 56.210693 56.449163 56.680438
56.904315 57.120648 57.329259 57.530022 57.722782 57.907434 58.083845 58.251929
58.411578 58.562722 58.705274 58.839182 58.964374 59.080815 59.188449 59.287250
59.377179 59.458218 59.530338 59.593530 59.647774 59.693064 59.729388 59.756745
59.775127 59.784534 59.784967 59.776425 59.758912 59.732432 59.696993 59.652599
59.599267 59.537003 59.465830 59.385759 59.296825 59.199044 59.092460 58.977102
58.853027 58.720273 58.578916 58.429007 58.270639 58.103882 57.928848 57.745626
57.554349 57.355126 57.148114 56.933440 56.711287 56.481801 56.245188 56.001613
55.751303 55.494443 55.231278 54.962008 54.686894 54.406149 54.120047 53.828810
53.532722 53.232008 52.926958 52.617799 52.304820 51.988246 51.668362 51.345388
51.019600 50.691209 50.360480 50.027611 49.692854 49.356390 49.018457 48.679218
48.338892 47.997625 47.655615 47.312990 46.969926 46.626532 46.282965 45.939311
45.595708 45.252224 44.908973 44.566008 44.223423 43.881251 43.539568 43.198392
42.857779 42.517735 42.178297 41.839457 41.501239 41.163621 40.826613 40.490184
40.154330 39.819012 39.484215 39.149893 38.816019 38.482544 38.149432 37.816629
37.484093 37.151769 36.819608 36.487554 36.155556
36.533333 36.904224 37.275170 37.646222 38.017435 38.388858 38.760545 39.132536
39.504885 39.877625 40.250803 40.624443 40.998589 41.373251 41.748464 42.124228
42.500568 42.877468 43.254942 43.632958 44.011517 44.390570 44.770103 45.150046
45.530371 45.910986 46.291846 46.672838 47.053896 47.434886 47.815721 48.196245
48.576349 48.955853 49.334629 49.712472 50.089233 50.464686 50.838659 51.210906
51.581235 51.949381 52.315134 52.678211 53.038388 53.395368 53.748912 54.098715
54.444529 54.786041 55.122999 55.455088 55.782056 56.103590 56.419442 56.729307
57.032944 57.330062 57.620432 57.903778 58.179888 58.448507 58.709441 58.962457
59.207385 59.444016 59.672201 59.891759 60.102563 60.304458 60.497341 60.681082
60.855598 61.020784 61.176576 61.322890 61.459681 61.586882 61.704463 61.812373
61.910594 61.999089 62.077846 62.146842 62.206069 62.255512 62.295168 62.325030
62.345096 62.355363 62.355832 62.346505 62.327383 62.298473 62.259777 62.211308
62.153070 62.085082 62.007354 61.919912 61.822771 61.715969 61.599530 61.473506
61.337929 61.192871 61.038377 60.874537 60.701414 60.519118 60.327734 60.127395
59.918205 59.700325 59.473881 59.239059 58.996009 58.744942 58.486031 58.219513
57.945581 57.664496 57.376469 57.081781 56.780659 56.473401 56.160247 55.841506
55.517425 55.188322 54.854449 54.516124 54.173600 53.827192 53.477149 53.123780
52.767322 52.408076 52.046267 51.682180 51.316025 50.948070 50.578506 50.207583
49.835472 49.462400 49.088519 48.714033 48.339071 47.963816 47.588374 47.212904
46.837492 46.462273 46.087313 45.712726 45.338555 44.964894 44.591768 44.219250
43.847349 43.476117 43.105549 42.735678 42.366487 41.997991 41.630162 41.263001
40.896467 40.530549 40.165199 39.800392 39.436076 39.072214 38.708749 38.345636
37.982815 37.620235 37.257833 36.895553 36.533333
36.911111 37.312972 37.714892 38.116933 38.519150 38.921605 39.324348 39.727438
40.130917 40.534843 40.939247 41.344180 41.749664 42.155742 42.562422 42.969738
43.377684 43.786282 44.195507 44.605372 45.015831 45.426882 45.838460 46.250544
46.663049 47.075934 47.489093 47.902464 48.315915 48.729365 49.142655 49.555682
49.968262 50.380268 50.791490 51.201778 51.610897 52.018672 52.424846 52.829220
53.231514 53.631508 54.028903 54.423459 54.814859 55.202849 55.587097 55.967337
56.343227 56.714492 57.080787 57.441835 57.797288 58.146872 58.490247 58.827142
59.157230 59.480252 59.795896 60.103920 60.404033 60.696011 60.979588 61.254564
61.520700 61.777819 62.025712 62.264229 62.493187 62.712465 62.921908 63.121418
63.310870 63.490187 63.659269 63.818061 63.966484 64.104500 64.232050 64.349109
64.455635 64.551612 64.637013 64.711830 64.776043 64.829649 64.872639 64.905011
64.926761 64.937888 64.938394 64.928279 64.907547 64.876199 64.834246 64.781688
64.718542 64.644811 64.560520 64.465677 64.360316 64.244454 64.118136 63.981390
63.834278 63.676842 63.509162 63.331297 63.143351 62.945402 62.737579 62.519983
62.292771 62.056067 61.810058 61.554894 61.290791 61.017923 60.736536 60.446831
60.149077 59.843499 59.530392 59.210000 58.882637 58.548564 58.208111 57.861551
57.509225 57.151411 56.788458 56.420643 56.048317 55.671755 55.291300 54.907220
54.519849 54.129442 53.736321 53.340723 52.942951 52.543226 52.141829 51.738961
51.334879 50.929761 50.523841 50.117271 49.710263 49.302943 48.895496 48.488026
48.080692 47.673576 47.266811 46.860456 46.454620 46.049342 45.644708 45.240738
44.837495 44.434982 44.033242 43.632262 43.232066 42.832628 42.433954 42.036006
41.638776 41.242215 40.846301 40.450978 40.056211 39.661939 39.268116 38.874676
38.481566 38.088718 37.696071 37.303557 36.911111
37.288889 37.721728 38.154634 38.587671 39.020907 39.454402 39.888222 40.322419
40.757059 41.192183 41.627850 42.064093 42.500965 42.938482 43.376689 43.815589
44.255215 44.695551 45.136619 45.578383 46.020850 46.463963 46.907711 47.352015
47.796844 48.242096 48.687717 49.133581 49.579611 50.025653 50.471605 50.917288
51.362573 51.807252 52.251173 52.694097 53.135847 53.576157 54.014823 54.451555
54.886124 55.318216 55.747578 56.173876 56.596839 57.016113 57.431412 57.842370
58.248688 58.649992 59.045977 59.436265 59.820552 60.198462 60.569696 60.933887
61.290747 61.639924 61.981143 62.314076 62.638468 62.954015 63.260486 63.557605
63.845170 64.122936 64.390729 64.648336 64.895612 65.132377 65.358515 65.573877
65.778372 65.971882 66.154338 66.325650 66.485769 66.634627 66.772192 66.898415
67.013279 67.116747 67.208813 67.289453 67.358665 67.416436 67.462766 67.497648
67.521083 67.533071 67.533612 67.522709 67.500362 67.466578 67.421357 67.364710
67.296640 67.217163 67.126286 67.024034 66.910419 66.785479 66.649234 66.501738
66.343025 66.173168 65.992216 65.800266 65.597387 65.383702 65.159304 64.924345
64.678946 64.423288 64.157519 63.881857 63.596476 63.301625 62.997509 62.684408
62.362553 62.032253 61.693763 61.347416 60.993490 60.632336 60.264247 59.889592
59.508672 59.121866 58.729478 58.331891 57.929410 57.522412 57.111196 56.696133
56.277509 55.855680 55.430918 55.003562 54.573862 54.142137 53.708614 53.273588
52.837263 52.399906 51.961695 51.522871 51.083585 50.644050 50.204389 49.764789
49.325347 48.886221 48.447485 48.009268 47.571622 47.134650 46.698382 46.262897
45.828204 45.394360 44.961357 44.529230 44.097954 43.667544 43.237964 42.809211
42.381235 41.954018 41.527502 41.101654 40.676408 40.251720 39.827518 39.403749
38.980336 38.557218 38.134318 37.711567 37.288889
37.666667 38.130492 38.594390 39.058435 39.522696 39.987248 40.452152 40.917482
41.383290 41.849645 42.316590 42.784187 43.252464 43.721477 44.191239 44.661793
45.133135 45.605296 46.078253 46.552022 47.026556 47.501854 47.977847 48.454514
48.931760 49.409542 49.887738 50.366280 50.845021 51.323864 51.802632 52.281203
52.759369 53.236980 53.713796 54.189639 54.664239 55.137389 55.608790 56.078206
56.545312 57.009845 57.471455 57.929856 58.384674 58.835607 59.282262 59.724320
60.161377 60.593103 61.019089 61.439001 61.852428 62.259038 62.658429 63.050276
63.434190 63.809861 64.176920 64.535078 64.883989 65.223391 65.552969 65.872488
66.181667 66.480303 66.768150 67.045038 67.310757 67.565169 67.808100 68.039441
68.259053 68.466855 68.662738 68.846645 69.018495 69.178249 69.325849 69.461275
69.584485 69.695469 69.794202 69.880682 69.954892 70.016835 70.066503 70.103898
70.129018 70.141866 70.142442 70.130748 70.106787 70.070560 70.022074 69.961327
69.888334 69.803093 69.705627 69.595938 69.474059 69.340001 69.193809 69.035507
68.865158 68.682803 68.488526 68.282389 68.064503 67.834952 67.593881 67.341400
67.077686 66.802882 66.517199 66.220812 65.913970 65.596878 65.269820 64.933035
64.586839 64.231499 63.867363 63.494722 63.113949 62.725354 62.329332 61.926208
61.516387 61.100204 60.678072 60.250326 59.817380 59.379563 58.937284 58.490862
58.040692 57.587078 57.130399 56.670937 56.209049 55.744996 55.279107 54.811618
54.342831 53.872952 53.402254 52.930916 52.459179 51.987192 51.515167 51.043225
50.571545 50.100221 49.629404 49.159160 48.689613 48.220803 47.752827 47.285703
46.819503 46.354224 45.889913 45.426550 44.964160 44.502708 44.042199 43.582582
43.123845 42.665927 42.208800 41.752393 41.296664 40.841537 40.386955 39.932839
39.479124 39.025725 38.572571 38.119578 37.666667
38.044444 38.539261 39.034159 39.529215 40.024514 40.520127 41.016135 41.512602
42.009607 42.507203 43.005464 43.504429 44.004164 44.504695 45.006075 45.508314
46.011454 46.515483 47.020428 47.526255 48.032975 48.540529 49.048907 49.558024
50.067849 50.578268 51.089224 51.600575 52.112235 52.624032 53.135851 53.647487
54.158796 54.669539 55.179539 55.688526 56.196291 56.702530 57.207005 57.709378
58.209382 58.706651 59.200890 59.691706 60.178779 60.661696 61.140117 61.613610
62.081823 62.544312 63.000717 63.450590 63.893569 64.329211 64.757158 65.176979
65.588327 65.990792 66.384046 66.767702 67.141460 67.504963 67.857942 68.200075
68.531126 68.850814 69.158937 69.455255 69.739602 70.011778 70.271652 70.519061
70.753908 70.976066 71.185464 71.382008 71.565652 71.736327 71.894007 72.038646