# vtk DataFile Version 3.0
Steady-state temperature (Jacobi)
ASCII
DATASET STRUCTURED_POINTS
DIMENSIONS 181 181 1
ORIGIN 0.0 0.0 0.0
SPACING 0.05 0.05 1.0
POINT_DATA 32761
SCALARS Temperature float 1
LOOKUP_TABLE default
32.000000 32.000000 32.000000 32.000000 32.000000 32.000000 32.000000 32.000000
32.000000 32.000000 32.000000 32.000000 32.000000 32.000000 32.000000 32.000000
32.000000 32.000000 32.000000 32.000000 32.000000 32.000000 32.000000 32.000000
32.000000 32.000000 32.000000 32.000000 32.000000 32.000000 32.000000 32.000000
32.000000 32.000000 32.000000 32.000000 32.000000 32.000000 32.000000 32.000000
32.000000 32.000000 32.000000 32.000000 32.000000 32.000000 32.000000 32.000000
32.000000 32.000000 32.000000 32.000000 32.000000 32.000000 32.000000 32.000000
32.000000 32.000000 32.000000 32.000000 32.000000 32.000000 32.000000 32.000000
32.000000 32.000000 32.000000 32.000000 32.000000 32.000000 32.000000 32.000000
32.000000 32.000000 32.000000 32.000000 32.000000 32.000000 32.000000 32.000000
32.000000 32.000000 32.000000 32.000000 32.000000 32.000000 32.000000 32.000000
32.000000 32.000000 32.000000 32.000000 32.000000 32.000000 32.000000 32.000000
32.000000 32.000000 32.000000 32.000000 32.000000 32.000000 32.000000 32.000000
32.000000 32.000000 32.000000 32.000000 32.000000 32.000000 32.000000 32.000000
32.000000 32.000000 32.000000 32.000000 32.000000 32.000000 32.000000 32.000000
32.000000 32.000000 32.000000 32.000000 32.000000 32.000000 32.000000 32.000000
32.000000 32.000000 32.000000 32.000000 32.000000 32.000000 32.000000 32.000000
32.000000 32.000000 32.000000 32.000000 32.000000 32.000000 32.000000 32.000000
32.000000 32.000000 32.000000 32.000000 32.000000 32.000000 32.000000 32.000000
32.000000 32.000000 32.000000 32.000000 32.000000 32.000000 32.000000 32.000000
32.000000 32.000000 32.000000 32.000000 32.000000 32.000000 32.000000 32.000000
32.000000 32.000000 32.000000 32.000000 32.000000 32.000000 32.000000 32.000000
32.000000 32.000000 32.000000 32.000000 32.000000
32.377778 32.406543 32.435315 32.464099 32.492902 32.521731 32.550590 32.579486
32.608424 32.637410 32.666447 32.695542 32.724696 32.753916 32.783202 32.812559
32.841986 32.871488 32.901062 32.930712 32.960433 32.990228 33.020090 33.050020
33.080010 33.110061 33.140160 33.170307 33.200489 33.230703 33.260934 33.291177
33.321415 33.351642 33.381838 33.411995 33.442092 33.472119 33.502053 33.531883
33.561583 33.591141 33.620531 33.649737 33.678733 33.707503 33.736018 33.764263
33.792207 33.819834 33.847114 33.874031 33.900554 33.926666 33.952339 33.977555
34.002286 34.026515 34.050215 34.073372 34.095957 34.117959 34.139351 34.160122
34.180248 34.199718 34.218512 34.236619 34.254021 34.270709 34.286667 34.301888
34.316358 34.330071 34.343014 34.355183 34.366569 34.377166 34.386968 34.395971
34.404169 34.411560 34.418139 34.423904 34.428852 34.432981 34.436290 34.438778
34.440443 34.441285 34.441304 34.440500 34.438873 34.436425 34.433155 34.429066
34.424160 34.418438 34.411903 34.404558 34.396408 34.387455 34.377706 34.367163
34.355835 34.343727 34.330847 34.317202 34.302803 34.287656 34.271777 34.255171
34.237857 34.219842 34.201145 34.181777 34.161758 34.141101 34.119827 34.097951
34.075496 34.052478 34.028923 34.004845 33.980274 33.955224 33.929726 33.903796
33.877463 33.850746 33.823673 33.796263 33.768544 33.740535 33.712265 33.683750
33.655019 33.626087 33.596984 33.567722 33.538329 33.508818 33.479213 33.449527
33.419783 33.389991 33.360172 33.330334 33.300498 33.270668 33.240864 33.211089
33.181359 33.151677 33.122055 33.092496 33.063010 33.033597 33.004265 32.975014
32.945849 32.916769 32.887777 32.858870 32.830051 32.801315 32.772663 32.744088
32.715592 32.687166 32.658810 32.630517 32.602282 32.574100 32.545965 32.517870
32.489810 32.461777 32.433766 32.405768 32.377778
32.755556 32.813090 32.870638 32.928210 32.985821 33.043482 33.101205 33.159001
33.216883 33.274858 33.332940 33.391133 33.449450 33.507893 33.566474 33.625192
33.684058 33.743067 33.802228 33.861533 33.920988 33.980584 34.040323 34.100190
34.160187 34.220295 34.280513 34.340816 34.401200 34.461638 34.522122 34.582619
34.643118 34.703584 34.764001 34.824329 34.884549 34.944618 35.004515 35.064190
35.123620 35.182752 35.241561 35.299991 35.358014 35.415572 35.472633 35.529140
35.585060 35.640333 35.694925 35.748776 35.801853 35.854095 35.905470 35.955919
36.005409 36.053884 36.101311 36.147639 36.192836 36.236852 36.279660 36.321214
36.361487 36.400438 36.438045 36.474268 36.509088 36.542472 36.574403 36.604851
36.633803 36.661233 36.687130 36.711472 36.734251 36.755449 36.775060 36.793068
36.809470 36.824253 36.837414 36.848945 36.858844 36.867104 36.873723 36.878699
36.882030 36.883714 36.883752 36.882144 36.878890 36.873992 36.867451 36.859273
36.849457 36.838012 36.824939 36.810248 36.793942 36.776034 36.756528 36.735440
36.712776 36.688555 36.662786 36.635490 36.606680 36.576381 36.544607 36.511388
36.476742 36.440703 36.403291 36.364544 36.324486 36.283159 36.240588 36.196822
36.151888 36.105836 36.058698 36.010527 35.961355 35.911240 35.860214 35.808336
35.755640 35.702187 35.648010 35.593171 35.537703 35.481667 35.425095 35.368046
35.310554 35.252674 35.194436 35.135896 35.077081 35.018043 34.958806 34.899419
34.839904 34.780307 34.720643 34.660956 34.601259 34.541590 34.481959 34.422400
34.362919 34.303546 34.244284 34.185158 34.126169 34.067336 34.008657 33.950149
33.891806 33.833641 33.775645 33.717827 33.660178 33.602701 33.545387 33.488235
33.431233 33.374379 33.317660 33.261070 33.204594 33.148227 33.091951 33.035759
32.979634 32.923566 32.867539 32.811540 32.755556
33.133333 33.219645 33.305976 33.392346 33.478771 33.565274 33.651869 33.738576
33.825409 33.912387 33.999519 34.086826 34.174313 34.261998 34.349882 34.437982
34.526294 34.614833 34.703590 34.792576 34.881777 34.971202 35.060831 35.150668
35.240686 35.330888 35.421240 35.511738 35.602343 35.693047 35.783804 35.874601
35.965385 36.056139 36.146802 36.237353 36.327725 36.417891 36.507779 36.597357
36.686548 36.775315 36.863577 36.951292 37.038377 37.124784 37.210429 37.295261
37.379193 37.462174 37.544114 37.624962 37.704628 37.783061 37.860173 37.935913
38.010195 38.082971 38.154157 38.223708 38.291544 38.357624 38.421874 38.484255
38.544698 38.603170 38.659609 38.713984 38.766239 38.816350 38.864268 38.909970
38.953415 38.994585 39.033444 39.069978 39.104158 39.135971 39.165395 39.192421
39.217029 39.239214 39.258960 39.276264 39.291114 39.303509 39.313440 39.320907
39.325904 39.328431 39.328488 39.326075 39.321193 39.313843 39.304030 39.291757
39.277031 39.259856 39.240242 39.218196 39.193731 39.166856 39.137589 39.105940
39.071933 39.035581 38.996913 38.955944 38.912711 38.867233 38.819551 38.769688
38.717694 38.663596 38.607448 38.549282 38.489161 38.427120 38.363227 38.297522
38.230080 38.160943 38.090191 38.017871 37.944066 37.868826 37.792237 37.714351
37.635256 37.555005 37.473688 37.391357 37.308103 37.223976 37.139067 37.053423
36.967133 36.880243 36.792838 36.704960 36.616691 36.528069 36.439169 36.350027
36.260714 36.171258 36.081725 35.992139 35.902559 35.813004 35.723526 35.634140
35.544891 35.455787 35.366870 35.278141 35.189635 35.101349 35.013312 34.925517
34.837986 34.750708 34.663700 34.576947 34.490460 34.404223 34.318239 34.232491
34.146979 34.061680 33.976592 33.891692 33.806970 33.722405 33.637984 33.553683
33.469488 33.385375 33.301326 33.217319 33.133333
33.511111 33.626212 33.741339 33.856516 33.971771 34.087126 34.202609 34.318237
34.434039 34.550029 34.666235 34.782666 34.899348 35.016285 35.133501 35.250994
35.368786 35.486868 35.605257 35.723939 35.842928 35.962200 36.081764 36.201590
36.321682 36.441999 36.562541 36.683260 36.804147 36.925146 37.046243 37.167373
37.288513 37.409590 37.530577 37.651389 37.771994 37.892299 38.012264 38.131792
38.250832 38.369283 38.487089 38.604141 38.720380 38.835692 38.950013 39.063225
39.175264 39.286008 39.395390 39.503289 39.609637 39.714314 39.817252 39.918335
40.017494 40.114619 40.209645 40.302464 40.393016 40.481200 40.566961 40.650205
40.730883 40.808907 40.884235 40.956788 41.026530 41.093390 41.157337 41.218312
41.276287 41.331211 41.383064 41.431801 41.477406 41.519844 41.559102 41.595150
41.627981 41.657571 41.683914 41.706994 41.726805 41.743335 41.756584 41.766541
41.773207 41.776579 41.776654 41.773435 41.766922 41.757120 41.744030 41.727661
41.708016 41.685108 41.658941 41.629535 41.596896 41.561048 41.521999 41.479781
41.434406 41.385911 41.334313 41.279657 41.221965 41.161288 41.097655 41.031126
40.961733 40.889548 40.814607 40.736991 40.656744 40.573952 40.488667 40.400983
40.310956 40.218689 40.124242 40.027725 39.929201 39.828785 39.726544 39.622596
39.517010 39.409907 39.301356 39.191479 39.080344 38.968072 38.854731 38.740438
38.625258 38.509307 38.392643 38.275378 38.157566 38.039313 37.920667 37.801727
37.682534 37.563181 37.443702 37.324181 37.204646 37.085173 36.965781 36.846539
36.727460 36.608602 36.489971 36.371618 36.253543 36.135786 36.018343 35.901246
35.784483 35.668081 35.552021 35.436322 35.320964 35.205956 35.091274 34.976921
34.862871 34.749120 34.635640 34.522422 34.409435 34.296665 34.184081 34.071664
33.959384 33.847218 33.735134 33.623109 33.511111
33.888889 34.032794 34.176732 34.320735 34.464833 34.609060 34.753443 34.898016
35.042800 35.187830 35.333122 35.478708 35.624598 35.770823 35.917385 36.064313
36.211600 36.359272 36.507313 36.655743 36.804540 36.953717 37.103242 37.253122
37.403313 37.553818 37.704583 37.855600 38.006806 38.158186 38.309663 38.461217
38.612759 38.764258 38.915618 39.066798 39.217690 39.368245 39.518347 39.667939
39.816893 39.965147 40.112565 40.259077 40.404541 40.548881 40.691952 40.833671
40.973889 41.112522 41.249420 41.384494 41.517597 41.648639 41.777474 41.904015
42.028120 42.149705 42.268633 42.384825 42.498150 42.608535 42.715860 42.820056
42.921013 43.018670 43.112926 43.203730 43.290989 43.374662 43.454666 43.530967
43.603493 43.672217 43.737080 43.798057 43.855101 43.908193 43.957293 44.002389
44.043448 44.080462 44.113406 44.142274 44.167048 44.187724 44.204291 44.216745
44.225081 44.229297 44.229391 44.225365 44.217221 44.204960 44.188591 44.168117
44.143550 44.114896 44.082173 44.045389 44.004569 43.959723 43.910884 43.858066
43.801310 43.740635 43.676091 43.607702 43.535529 43.459601 43.379989 43.296730
43.209907 43.119563 43.025791 42.928644 42.828224 42.724593 42.617864 42.508103
42.395435 42.279932 42.161728 42.040902 41.917592 41.791883 41.663920 41.533790
41.401640 41.267561 41.131702 40.994152 40.855063 40.714520 40.572674 40.429607
40.285467 40.140331 39.994341 39.847569 39.700151 39.552151 39.403698 39.254849
39.105722 38.956366 38.806891 38.657337 38.507802 38.358318 38.208973 38.059790
37.910845 37.762152 37.613778 37.465728 37.318058 37.170764 37.023893 36.877433
36.731421 36.585839 36.440712 36.296019 36.151776 36.007954 35.864561 35.721566
35.578968 35.436733 35.294851 35.153286 35.012023 34.871024 34.730267 34.589714
34.449338 34.309101 34.168971 34.028912 33.888889
34.266667 34.439395 34.612164 34.785010 34.957974 35.131090 35.304401 35.477933
35.651731 35.825816 36.000230 36.174987 36.350127 36.525657 36.701614 36.877994
37.054832 37.232114 37.409868 37.588071 37.766745 37.945855 38.125416 38.305382
38.485759 38.666489 38.847569 39.028928 39.210554 39.392362 39.574331 39.756363
39.938425 40.120407 40.302267 40.483880 40.665194 40.846072 41.026452 41.206186
41.385201 41.563341 41.740522 41.916581 42.091426 42.264886 42.436863 42.607181
42.775737 42.942353 43.106922 43.269264 43.429274 43.586772 43.741652 43.893740
44.042932 44.189060 44.332025 44.471665 44.607889 44.740545 44.869549 44.994759
45.116101 45.233444 45.346723 45.455822 45.560683 45.661205 45.757338 45.848995
45.936135 46.018682 46.096605 46.169840 46.238364 46.302123 46.361099 46.415251
46.464565 46.509009 46.548573 46.583234 46.612985 46.637808 46.657702 46.672654
46.682663 46.687724 46.687838 46.683004 46.673224 46.658504 46.638847 46.614266
46.584763 46.550359 46.511059 46.466891 46.417864 46.364012 46.305348 46.241918
46.173740 46.100867 46.023325 45.941180 45.854464 45.763254 45.667591 45.567566
45.463227 45.354680 45.241982 45.125251 45.004554 44.880022 44.751731 44.619825
44.484389 44.345576 44.203479 44.058262 43.910024 43.758936 43.605101 43.448697
43.289830 43.128682 42.965359 42.800043 42.632841 42.463935 42.293427 42.121496
41.948239 41.773832 41.598363 41.422002 41.244830 41.067007 40.888605 40.709775
40.530579 40.351155 40.171557 39.991909 39.812255 39.632707 39.453297 39.274125
39.095212 38.916644 38.738432 38.560650 38.383298 38.206437 38.030058 37.854211
37.678878 37.504095 37.329839 37.156133 36.982948 36.810297 36.638144 36.466493
36.295304 36.124571 35.954249 35.784326 35.614755 35.445515 35.276558 35.107855
34.939359 34.771037 34.602841 34.434733 34.266667
34.644444 34.846020 35.047640 35.249355 35.451205 35.653239 35.855495 36.058023
36.260852 36.464032 36.667586 36.871561 37.075969 37.280858 37.486229 37.692124
37.898534 38.105496 38.312989 38.521043 38.729625 38.938755 39.148389 39.358538
39.569142 39.780203 39.991646 40.203462 40.415563 40.627926 40.840448 41.053095
41.265747 41.478359 41.690795 41.902998 42.114818 42.326184 42.536932 42.746982
42.956155 43.164360 43.371409 43.577199 43.781532 43.984299 44.185294 44.384400
44.581407 44.776194 44.968548 45.158345 45.345374 45.529509 45.710542 45.888352
46.062734 46.233571 46.400669 46.563915 46.723126 46.878198 47.028960 47.175317
47.317112 47.454262 47.586623 47.714123 47.836636 47.954099 48.066402 48.173493
48.275278 48.371715 48.462724 48.548273 48.628294 48.702764 48.771629 48.834872
48.892449 48.944349 48.990539 49.031011 49.065742 49.094726 49.117948 49.135405
49.147089 49.152998 49.153130 49.147486 49.136069 49.118883 49.095936 49.067233
49.032793 48.992618 48.946738 48.895158 48.837916 48.775022 48.706522 48.632434
48.552815 48.467689 48.377126 48.281157 48.179866 48.073295 47.961541 47.844656
47.722754 47.595896 47.464213 47.327777 47.186734 47.041167 46.891238 46.737040
46.578748 46.416467 46.250382 46.080606 45.907337 45.730693 45.550880 45.368021
45.182326 44.993921 44.803021 44.609751 44.414324 44.216865 44.017584 43.816600
43.614120 43.410255 43.205206 42.999075 42.792053 42.584232 42.375792 42.166815
41.957467 41.747817 41.538020 41.328131 41.118290 40.908540 40.699005 40.489716
40.280782 40.072221 39.864125 39.656502 39.449429 39.242903 39.036984 38.831660
38.626978 38.422915 38.219505 38.016715 37.814569 37.613026 37.412095 37.211733
37.011937 36.812658 36.613884 36.415561 36.217668 36.020150 35.822978 35.626096
35.429465 35.233032 35.036753 34.840573 34.644444
35.022222 35.252669 35.483170 35.713775 35.944543 36.175517 36.406756 36.638298
36.870202 37.102496 37.335240 37.568453 37.802189 38.036458 38.271310 38.506743
38.742803 38.979472 39.216790 39.454727 39.693312 39.932501 40.172313 40.412689
40.653638 40.895081 41.137017 41.379351 41.622067 41.865054 42.108281 42.351620
42.595027 42.838354 43.081543 43.324430 43.566943 43.808900 44.050214 44.290690
44.530227 44.768616 45.005744 45.241390 45.475430 45.707633 45.937866 46.165893
46.391572 46.614664 46.835023 47.052406 47.266670 47.477572 47.684968 47.888623
48.088396 48.284060 48.475480 48.662440 48.844815 49.022401 49.195084 49.362674
49.525071 49.682101 49.833676 49.979642 50.119921 50.254378 50.382950 50.505518
50.622032 50.732391 50.836556 50.934441 51.026017 51.111215 51.190014 51.262359
51.328234 51.387598 51.440439 51.486727 51.526456 51.559603 51.586165 51.606128
51.619492 51.626249 51.626399 51.619945 51.606886 51.587231 51.560983 51.528158
51.488759 51.442812 51.390322 51.331325 51.265831 51.193885 51.115503 51.030741
50.939624 50.842222 50.738565 50.628741 50.512791 50.390817 50.262872 50.129076
49.989493 49.844262 49.693461 49.537246 49.375708 49.209021 49.037288 48.860702
48.679377 48.493520 48.303256 48.108806 47.910304 47.707982 47.501979 47.292536
47.079796 46.864004 46.645306 46.423948 46.200074 45.973930 45.745654 45.515489
45.283567 45.050123 44.815279 44.579261 44.342181 44.104253 43.865576 43.626350
43.386661 43.146693 42.906519 42.666305 42.426110 42.186084 41.946269 41.706798
41.467699 41.229087 40.990976 40.753464 40.516550 40.280316 40.044750 39.809913
39.575785 39.342412 39.109760 38.877863 38.646677 38.416221 38.186445 37.957353
37.728891 37.501050 37.273770 37.047031 36.820772 36.594962 36.369537 36.144458
35.919661 35.695099 35.470708 35.246436 35.022222
35.400000 35.659347 35.918754 36.178285 36.437993 36.697946 36.958190 37.218792
37.479791 37.741254 38.003209 38.265721 38.528807 38.792527 39.056885 39.321938
39.587675 39.854143 40.121319 40.389242 40.657870 40.927232 41.197269 41.468000
41.739347 42.011314 42.283805 42.556810 42.830215 43.103992 43.378008 43.652221
43.926474 44.200711 44.474757 44.748536 45.021855 45.294622 45.566625 45.837758
46.107792 46.376604 46.643952 46.909700 47.173593 47.435484 47.695107 47.952308
48.206814 48.458464 48.706981 48.952203 49.193852 49.431765 49.665671 49.895407
50.120710 50.341425 50.557298 50.768182 50.973840 51.174134 51.368844 51.557846
51.740937 51.918008 52.088876 52.253447 52.411559 52.563132 52.708026 52.846175
52.977459 53.101828 53.219178 53.329471 53.432624 53.528608 53.617355 53.698847
53.773030 53.839890 53.899389 53.951517 53.996247 54.033573 54.063476 54.085955
54.100998 54.108606 54.108776 54.101507 54.086806 54.064673 54.035122 53.998157
53.953798 53.902052 53.842949 53.776500 53.702746 53.621701 53.533422 53.437929
53.335292 53.225540 53.108761 52.984994 52.854344 52.716862 52.572673 52.421842
52.264514 52.100768 51.930771 51.754616 51.572491 51.384505 51.190864 50.991693
50.787217 50.577572 50.363000 50.143650 49.919778 49.691540 49.459203 49.222929
48.982994 48.739563 48.492914 48.243213 47.990740 47.735655 47.478236 47.218636
46.957127 46.693854 46.429077 46.162930 45.895663 45.627395 45.358360 45.088663
44.818522 44.548026 44.277374 44.006638 43.735999 43.465512 43.195337 42.925514
42.656181 42.387362 42.119176 41.851631 41.584826 41.318754 41.053496 40.789031
40.525420 40.262632 40.000709 39.739609 39.479359 39.219908 38.961265 38.703371
38.446224 38.189758 37.933955 37.678748 37.424105 37.169956 36.916261 36.662946
36.409963 36.157239 35.904716 35.652324 35.400000
35.777778 36.066056 36.354403 36.642885 36.931575 37.220530 37.509825 37.799510
38.089659 38.380313 38.671543 38.963377 39.255886 39.549082 39.843032 40.137732
40.433242 40.729544 41.026686 41.324634 41.623426 41.923008 42.223406 42.524547
42.826442 43.128997 43.432209 43.735962 44.040235 44.344890 44.649890 44.955074
45.260386 45.565644 45.870772 46.175565 46.479931 46.783643 47.086589 47.388524
47.689319 47.988709 48.286551 48.582565 48.876593 49.168341 49.457641 49.744189
50.027809 50.308192 50.585154 50.858387 51.127703 51.392797 51.653484 51.909465
52.160558 52.406477 52.647049 52.881999 53.111169 53.334300 53.551247 53.761773
53.965748 54.162956 54.353286 54.536544 54.712635 54.881391 55.042732 55.196515
55.342676 55.481092 55.611716 55.734445 55.849246 55.956034 56.054786 56.145437
56.227969 56.302334 56.368521 56.426493 56.476245 56.517752 56.551010 56.576005
56.592735 56.601194 56.601381 56.593299 56.576947 56.552337 56.519469 56.478363
56.429021 56.371473 56.305724 56.231816 56.149758 56.059604 55.961371 55.855128
55.740899 55.618771 55.488780 55.351031 55.205574 55.052533 54.891973 54.724042
54.548820 54.366479 54.177115 53.980925 53.778022 53.568625 53.352864 53.130982
52.903123 52.669551 52.430424 52.186022 51.936517 51.682201 51.423256 51.159984
50.892571 50.621328 50.346442 50.068225 49.786862 49.502665 49.215813 48.926612
48.635231 48.341968 48.046981 47.750554 47.452831 47.154081 46.854431 46.554133
46.253296 45.952153 45.650793 45.349428 45.048131 44.747088 44.446354 44.146095
43.846344 43.547246 43.248817 42.951178 42.654329 42.358368 42.063280 41.769142
41.475925 41.183686 40.892381 40.602050 40.312638 40.024165 39.736569 39.449853
39.163946 38.878835 38.594446 38.310751 38.027670 37.745164 37.463152 37.181582
36.900373 36.619465 36.338777 36.058240 35.777778
36.155556 36.472798 36.790116 37.107589 37.425286 37.743291 38.061662 38.380485
38.699808 39.019716 39.340245 39.661477 39.983434 40.306193 40.629761 40.954208
41.279525 41.605771 41.932919 42.261019 42.590022 42.919966 43.250780 43.582488
43.914998 44.248315 44.582325 44.917015 45.252246 45.587987 45.924074 46.260455
46.596942 46.933463 47.269803 47.605870 47.941426 48.276357 48.610403 48.943428
49.275153 49.605423 49.933938 50.260528 50.584877 50.906801 51.225969 51.542187
51.855117 52.164554 52.470158 52.771719 53.068896 53.361481 53.649137 53.931659
54.208722 54.480128 54.745564 55.004846 55.257679 55.503891 55.743211 55.975483
56.200459 56.418004 56.627894 56.830014 57.024166 57.210255 57.388109 57.557652
57.718739 57.871309 58.015242 58.150494 58.276966 58.394628 58.503399 58.603262
58.694153 58.776061 58.848940 58.912784 58.967561 59.013266 59.049880 59.077401
59.095818 59.105130 59.105336 59.096436 59.078435 59.051335 59.015150 58.969883
58.915558 58.852178 58.779781 58.698372 58.608003 58.508685 58.400484 58.283420
58.157576 58.022985 57.879747 57.727910 57.567596 57.398867 57.221873 57.036690
56.843494 56.642381 56.433553 56.217127 55.993329 55.762297 55.524283 55.279442
55.028053 54.770285 54.506439 54.236699 53.961385 53.680692 53.394952 53.104370
52.809288 52.509914 52.206595 51.899538 51.589092 51.275460 50.958984 50.639861
50.318425 49.994859 49.669486 49.342474 49.014130 48.684606 48.354188 48.023010
47.691338 47.359284 47.027091 46.694850 46.362781 46.030954 45.699562 45.368656
45.038402 44.708831 44.380085 44.052175 43.725219 43.399209 43.074239 42.750285
42.427418 42.105598 41.784877 41.465199 41.146596 40.829003 40.512429 40.196802
39.882113 39.568283 39.255287 38.943039 38.631501 38.320583 38.010234 37.700363
37.390908 37.081777 36.772899 36.464185 36.155556
36.533333 36.879574 37.225902 37.572395 37.919146 38.266226 38.613728 38.961712
39.310273 39.659460 40.009363 40.360017 40.711509 41.063859 41.417146 41.771373
42.126610 42.482839 42.840122 43.198420 43.557779 43.918139 44.279533 44.641874
45.005178 45.369335 45.734342 46.100060 46.466468 46.833400 47.200811 47.568510
47.936429 48.304348 48.672177 49.039668 49.406709 49.773025 50.138480 50.502777
50.865756 51.227099 51.586625 51.943995 52.299013 52.651324 53.000716 53.346820
53.689416 54.028128 54.362727 54.692835 55.018220 55.338509 55.653471 55.962741
56.266094 56.563180 56.853785 57.137575 57.414353 57.683806 57.945756 58.199914
58.446124 58.684125 58.913780 59.134861 59.347252 59.550752 59.745271 59.930635
60.106773 60.273542 60.430888 60.578693 60.716919 60.845473 60.964329 61.073413
61.172711 61.262167 61.341775 61.411492 61.471317 61.521221 61.561205 61.591251
61.611361 61.621527 61.621751 61.612033 61.592375 61.562787 61.523269 61.473842
61.414507 61.345296 61.266213 61.177301 61.078570 60.970078 60.851843 60.723941
60.586398 60.439313 60.282724 60.116754 59.941457 59.756980 59.563398 59.360885
59.149535 58.929553 58.701054 58.464273 58.219348 57.966542 57.706016 57.438059
57.162853 56.880715 56.591843 56.296576 55.995128 55.687855 55.374981 55.056879
54.733777 54.406056 54.073947 53.737834 53.397946 53.054663 52.708207 52.358953
52.007110 51.653040 51.296940 50.939154 50.579860 50.219385 49.857885 49.495665
49.132859 48.769747 48.406441 48.043193 47.680093 47.317364 46.955074 46.593418
46.232439 45.872308 45.513043 45.154788 44.797542 44.441420 44.086403 43.732581
43.379917 43.028475 42.678205 42.329147 41.981237 41.634493 41.288841 40.944278
40.600721 40.258150 39.916471 39.575652 39.235592 38.896242 38.557503 38.219310
37.881562 37.544185 37.207079 36.870161 36.533333
36.911111 37.286388 37.661757 38.037315 38.413148 38.789356 39.166014 39.543223
39.921046 40.299585 40.678886 41.059049 41.440104 41.822144 42.205181 42.589301
42.974495 43.360838 43.748301 44.136943 44.526713 44.917655 45.309692 45.702851
46.097028 46.492229 46.888324 47.285297 47.682987 48.081357 48.480215 48.879500
49.278990 49.678598 50.078072 50.477299 50.875998 51.274030 51.671085 52.067001
52.461442 52.854220 53.244976 53.633503 54.019421 54.402504 54.782357 55.158739
55.531243 55.899620 56.263458 56.622499 56.976333 57.324702 57.667203 58.003582
58.333448 58.656557 58.972536 59.281156 59.582065 59.875055 60.159799 60.436112
60.703697 60.962391 61.211932 61.452181 61.682906 61.903997 62.115254 62.316589
62.507834 62.688925 62.859721 63.020177 63.170182 63.309705 63.438658 63.557023
63.664734 63.761782 63.848117 63.923738 63.988609 64.042731 64.086083 64.118666
64.140468 64.151491 64.151732 64.141193 64.119879 64.087790 64.044943 63.991335
63.926993 63.851919 63.766149 63.669689 63.562591 63.444866 63.316584 63.177765
63.028500 62.868821 62.698844 62.518617 62.328282 62.127906 61.917663 61.697640
61.468041 61.228980 60.980693 60.723318 60.457125 60.182276 59.899072 59.607702
59.308496 59.001664 58.687563 58.366422 58.038621 57.704403 57.364166 57.018162
56.666804 56.310346 55.949207 55.583644 55.214073 54.840747 54.464076 54.084302
53.701825 53.316872 52.929828 52.540901 52.150455 51.758677 51.365908 50.972311
50.578202 50.183718 49.789146 49.394597 49.000329 48.606427 48.213118 47.820463
47.428657 47.037735 46.647864 46.259056 45.871446 45.485025 45.099900 44.716042
44.333530 43.952317 43.572458 43.193887 42.816636 42.440627 42.065869 41.692271
41.319821 40.948422 40.578042 40.208576 39.839975 39.472131 39.104981 38.738413
38.372351 38.006684 37.641326 37.276167 36.911111
37.288889 37.693237 38.097689 38.502343 38.907308 39.312671 39.718544 40.125003
40.532159 40.940075 41.348859 41.758556 42.169271 42.581030 42.993931 43.407979
43.823260 44.239759 44.657548 45.076587 45.496933 45.918520 46.341388 46.765440
47.190697 47.617033 48.044447 48.472780 48.902008 49.331939 49.762523 50.193536
50.624899 51.056356 51.487800 51.918943 52.349647 52.779594 53.208618 53.636370
54.062659 54.487106 54.909496 55.329426 55.746659 56.160773 56.571510 56.978435
57.381275 57.779586 58.173087 58.561329 58.944029 59.320740 59.691184 60.054924
60.411687 60.761055 61.102771 61.436437 61.761814 62.078533 62.386379 62.685014
62.974248 63.253778 63.523444 63.782977 64.032245 64.271017 64.499187 64.716560
64.923057 65.118516 65.302879 65.476017 65.637891 65.788400 65.927520 66.055173
66.171348 66.275987 66.369088 66.450609 66.520551 66.578888 66.625622 66.660738
66.684239 66.696118 66.696376 66.685017 66.662039 66.627454 66.581260 66.523476
66.454101 66.373167 66.280673 66.176665 66.061147 65.934182 65.795782 65.646030
65.484950 65.312648 65.129164 64.934634 64.729115 64.512774 64.285693 64.048070
63.800014 63.541760 63.273441 62.995332 62.707593 62.410535 62.104346 61.789371
61.465826 61.134086 60.794391 60.447143 60.092600 59.731189 59.363181 58.989018
58.608982 58.223523 57.832926 57.437647 57.037964 56.634331 56.227018 55.816469
55.402940 54.986859 54.568466 54.148167 53.726178 53.302883 52.878474 52.453306
52.027542 51.601509 51.175341 50.749334 50.323593 49.898380 49.473771 49.049997
48.627105 48.205292 47.784580 47.365133 46.946947 46.530156 46.114733 45.700780
45.288251 44.877219 44.467620 44.059499 43.652776 43.247472 42.843492 42.440834
42.039393 41.639145 41.239978 40.841846 40.444633 40.048276 39.652655 39.257692
38.863266 38.469287 38.075634 37.682206 37.288889
37.666667 38.100125 38.533693 38.967489 39.401614 39.836188 40.271302 40.707078
41.143592 41.580964 42.019255 42.458581 42.898984 43.340573 43.783369 44.227472
44.672880 45.119680 45.567844 46.017445 46.468428 46.920847 47.374617 47.829773
48.286198 48.743903 49.202739 49.662692 50.123579 50.585357 51.047807 51.510859
51.974258 52.437902 52.901500 53.364920 53.827836 54.290084 54.751303 55.211299
55.669681 56.126225 56.580511 57.032289 57.481114 57.926714 58.368624 58.806553
59.240024 59.668732 60.092191 60.510092 60.921949 61.327451 61.726119 62.117649
62.501578 62.877613 63.245312 63.604404 63.954472 64.295269 64.626413 64.947684
65.258735 65.559379 65.849308 66.128365 66.396285 66.652941 66.898107 67.131687
67.353494 67.563457 67.761426 67.947352 68.121118 68.282694 68.431990 68.568991
68.693631 68.805906 68.905767 68.993217 69.068224 69.130794 69.180905 69.218564
69.243760 69.256498 69.256774 69.244590 69.219953 69.182859 69.133324 69.071344
68.996943 68.910118 68.810906 68.699304 68.575368 68.439100 68.290574 68.129805
67.956888 67.771855 67.574827 67.365856 67.145096 66.912619 66.668618 66.413191
66.146568 65.868879 65.580392 65.281269 64.971819 64.652235 64.322867 63.983936
63.635831 63.278800 62.913265 62.539499 62.157951 61.768913 61.372855 60.970082
60.561080 60.146159 59.725812 59.300349 58.870263 58.435858 57.997619 57.555836
57.110981 56.663326 56.213323 55.761221 55.307447 54.852225 54.395951 53.938821
53.481201 53.023253 52.565311 52.107504 51.650132 51.193292 50.737246 50.282063
49.827968 49.375000 48.923348 48.473023 48.024180 47.576803 47.131015 46.686776
46.244177 45.803156 45.363775 44.925954 44.489725 44.054994 43.621767 43.189936
42.759482 42.330289 41.902315 41.475437 41.049594 40.624655 40.200545 39.777131
39.354320 38.931981 38.510010 38.088277 37.666667
38.044444 38.507048 38.969775 39.432743 39.896079 40.359891 40.824308 41.289424
41.755371 42.222223 42.690111 43.159092 43.629288 44.100736 44.573551 45.047745
45.523422 46.000567 46.479270 46.959488 47.441293 47.924611 48.409494 48.895836
49.383664 49.872838 50.363359 50.855051 51.347886 51.841650 52.336285 52.831539
53.327319 53.823335 54.319462 54.815369 55.310897 55.805679 56.299520 56.792016
57.282942 57.771859 58.258511 58.742430 59.223333 59.700728 60.174306 60.643559
61.108160 61.567588 62.021506 62.469388 62.910893 63.345499 63.772868 64.192490
64.604038 65.007021 65.401132 65.785906 66.161059 66.526163 66.880961 67.225065
67.558250 67.880171 68.190640 68.489353 68.776159 69.050800 69.313158 69.563017
69.800292 70.024808 70.236506 70.435249 70.621001 70.793656 70.953199 71.099549