<?xml version="1.0"?>
<VTKFile type="ImageData" version="0.1" byte_order="LittleEndian">
  <ImageData WholeExtent="0 180 0 180 0 0" Origin="0.0 0.0 0.0" Spacing="0.05 0.05 1">
    <Piece Extent="0 180 0 180 0 0">
      <PointData Scalars="Temperature">
        <DataArray type="Float32" Name="Temperature" format="ascii">
32.000000 32.000000 32.000000 32.000000 32.000000 32.000000 32.000000 32.000000 32.000000 32.000000 32.000000 32.000000 32.000000 32.000000 32.000000 32.000000 32.000000 32.000000 32.000000 32.000000 32.000000 32.000000 32.000000 32.000000 32.000000 32.000000 32.000000 32.000000 32.000000 32.000000 32.000000 32.000000 32.000000 32.000000 32.000000 32.000000 32.000000 32.000000 32.000000 32.000000 32.000000 32.000000 32.000000 32.000000 32.000000 32.000000 32.000000 32.000000 32.000000 32.000000 32.000000 32.000000 32.000000 32.000000 32.000000 32.000000 32.000000 32.000000 32.000000 32.000000 32.000000 32.000000 32.000000 32.000000 32.000000 32.000000 32.000000 32.000000 32.000000 32.000000 32.000000 32.000000 32.000000 32.000000 32.000000 32.000000 32.000000 32.000000 32.000000 32.000000 32.000000 32.000000 32.000000 32.000000 32.000000 32.000000 32.000000 32.000000 32.000000 32.000000 32.000000 32.000000 32.000000 32.000000 32.000000 32.000000 32.000000 32.000000 32.000000 32.000000 32.000000 32.000000 32.000000 32.000000 32.000000 32.000000 32.000000 32.000000 32.000000 32.000000 32.000000 32.000000 32.000000 32.000000 32.000000 32.000000 32.000000 32.000000 32.000000 32.000000 32.000000 32.000000 32.000000 32.000000 32.000000 32.000000 32.000000 32.000000 32.000000 32.000000 32.000000 32.000000 32.000000 32.000000 32.000000 32.000000 32.000000 32.000000 32.000000 32.000000 32.000000 32.000000 32.000000 32.000000 32.000000 32.000000 32.000000 32.000000 32.000000 32.000000 32.000000 32.000000 32.000000 32.000000 32.000000 32.000000 32.000000 32.000000 32.000000 32.000000 32.000000 32.000000 32.000000 32.000000 32.000000 32.000000 32.000000 32.000000 32.000000 32.000000 32.000000 32.000000 32.000000 32.000000 32.000000 32.000000 32.000000 32.000000 32.000000 32.000000 32.000000
32.377778 32.403371 32.428974 32.454597 32.480250 32.505945 32.531688 32.557491 32.583362 32.609311 32.635343 32.661471 32.687696 32.714032 32.740478 32.767047 32.793735 32.820555 32.847502 32.874587 32.901803 32.929159 32.956645 32.984271 33.012023 33.039909 33.067914 33.096043 33.124278 33.152624 33.181059 33.209586 33.238181 33.266844 33.295550 33.324296 33.353055 33.381821 33.410566 33.439283 33.467938 33.496526 33.525011 33.553384 33.581609 33.609676 33.637546 33.665210 33.692628 33.719788 33.746652 33.773207 33.799413 33.825259 33.850705 33.875738 33.900323 33.924445 33.948068 33.971182 33.993750 34.015763 34.037188 34.058015 34.078213 34.097775 34.116671 34.134895 34.152422 34.169244 34.185341 34.200705 34.215319 34.229178 34.242265 34.254576 34.266098 34.276828 34.286753 34.295874 34.304179 34.311668 34.318333 34.324174 34.329184 34.333364 34.336710 34.339220 34.340894 34.341730 34.341729 34.340890 34.339215 34.336703 34.333356 34.329176 34.324166 34.318327 34.311664 34.304178 34.295878 34.286764 34.276846 34.266127 34.254617 34.242320 34.229250 34.215411 34.200819 34.185479 34.169411 34.152620 34.135129 34.116944 34.098091 34.078577 34.058431 34.037661 34.016298 33.994352 33.971857 33.948822 33.925283 33.901252 33.876766 33.851837 33.826503 33.800777 33.774698 33.748279 33.721560 33.694553 33.667297 33.639805 33.612116 33.584241 33.556218 33.528058 33.499797 33.471445 33.443036 33.414578 33.386106 33.357623 33.329162 33.300726 33.272344 33.244018 33.215775 33.187615 33.159560 33.131610 33.103786 33.076083 33.048519 33.021090 32.993811 32.966674 32.939692 32.912857 32.886179 32.859647 32.833270 32.807035 32.780949 32.754999 32.729187 32.703502 32.677943 32.652496 32.627162 32.601925 32.576782 32.551720 32.526733 32.501808 32.476938 32.452109 32.427314 32.402541 32.377778
32.755556 32.806749 32.857962 32.909216 32.960532 33.011926 33.063422 33.115034 33.166787 33.218689 33.270767 33.323027 33.375493 33.428168 33.481077 33.534218 33.587613 33.641257 33.695172 33.749345 33.803799 33.858515 33.913512 33.968768 34.024299 34.080077 34.136114 34.192379 34.248880 34.305579 34.362481 34.419543 34.476767 34.534103 34.591550 34.649053 34.706607 34.764153 34.821680 34.879126 34.936477 34.993666 35.050677 35.107437 35.163929 35.220077 35.275860 35.331203 35.386080 35.440416 35.494185 35.547309 35.599763 35.651468 35.702399 35.752481 35.801687 35.849944 35.897227 35.943466 35.988637 36.032674 36.075555 36.117218 36.157643 36.196774 36.234593 36.271047 36.306123 36.339773 36.371986 36.402720 36.431966 36.459686 36.485874 36.510499 36.533555 36.555016 36.574878 36.593119 36.609738 36.624716 36.638053 36.649734 36.659760 36.668119 36.674813 36.679834 36.683183 36.684856 36.684853 36.683176 36.679823 36.674799 36.668103 36.659743 36.649718 36.638040 36.624708 36.609737 36.593128 36.574899 36.555053 36.533613 36.510581 36.485985 36.459830 36.432149 36.402948 36.372264 36.340108 36.306521 36.271516 36.235140 36.197407 36.158372 36.118051 36.076502 36.033744 35.989842 35.944816 35.898735 35.851621 35.803547 35.754536 35.704664 35.653957 35.602491 35.550293 35.497440 35.443960 35.389931 35.335377 35.280378 35.224958 35.169193 35.113106 35.056771 35.000209 34.943491 34.886634 34.829706 34.772721 34.715745 34.658785 34.601902 34.545103 34.488443 34.431923 34.375593 34.319452 34.263545 34.207866 34.152453 34.097298 34.042434 33.987849 33.933571 33.879583 33.825909 33.772530 33.719463 33.666688 33.614216 33.562024 33.510121 33.458481 33.407107 33.355973 33.305078 33.254394 33.203917 33.153619 33.103491 33.053507 33.003652 32.953902 32.904240 32.854642 32.805088 32.755556
33.133333 33.210142 33.286980 33.363880 33.440870 33.517984 33.595244 33.672687 33.750330 33.828211 33.906343 33.984763 34.063477 34.142524 34.221903 34.301650 34.381760 34.462267 34.543157 34.624462 34.706161 34.788284 34.870801 34.953738 35.037058 35.120782 35.204865 35.289323 35.374104 35.459217 35.544603 35.630266 35.716136 35.802215 35.888423 35.974756 36.061128 36.147528 36.233863 36.320117 36.406190 36.492061 36.577625 36.662855 36.747642 36.831955 36.915681 36.998786 37.081154 37.162749 37.243453 37.323228 37.401959 37.479604 37.556050 37.631256 37.705111 37.777577 37.848545 37.917978 37.985775 38.051900 38.116257 38.178816 38.239486 38.298240 38.354996 38.409730 38.462367 38.512888 38.561227 38.607368 38.651251 38.692866 38.732160 38.769126 38.803719 38.835934 38.865734 38.893115 38.918048 38.940530 38.960538 38.978071 38.993111 39.005658 39.015699 39.023235 39.028259 39.030770 39.030767 39.028249 39.023220 39.015679 39.005635 38.993086 38.978048 38.960518 38.940517 38.918046 38.893128 38.865766 38.835991 38.803807 38.769250 38.732328 38.693084 38.651527 38.607710 38.561645 38.513391 38.462965 38.410434 38.355818 38.299192 38.240580 38.180067 38.117679 38.053507 37.987583 37.920006 37.850808 37.780094 37.707902 37.634340 37.559448 37.483339 37.406053 37.327706 37.248337 37.168066 37.086931 37.005050 36.922460 36.839279 36.755540 36.671360 36.586768 36.501877 36.416712 36.331380 36.245904 36.160384 36.074836 35.989356 35.903954 35.818718 35.733652 35.648838 35.564273 35.480031 35.396104 35.312556 35.229375 35.146617 35.064264 34.982363 34.900893 34.819890 34.739330 34.659243 34.579598 34.500418 34.421669 34.343367 34.265475 34.188000 34.110905 34.034191 33.957817 33.881778 33.806035 33.730575 33.655358 33.580367 33.505563 33.430924 33.356411 33.281998 33.207649 33.133333
33.511111 33.613556 33.716042 33.818608 33.921300 34.024149 34.127204 34.230492 34.334062 34.437935 34.542161 34.646752 34.751760 34.857188 34.963087 35.069453 35.176332 35.283713 35.391638 35.500087 35.609099 35.718641 35.828751 35.939384 36.050571 36.162258 36.274470 36.387142 36.500292 36.613843 36.727807 36.842097 36.956716 37.071565 37.186642 37.301837 37.417138 37.532428 37.647686 37.762786 37.877700 37.992294 38.106534 38.220277 38.333483 38.446006 38.557800 38.668713 38.778697 38.887596 38.995360 39.101833 39.206961 39.310591 39.412668 39.513042 39.611659 39.708373 39.803133 39.895798 39.986320 40.074567 40.160494 40.243977 40.324977 40.403379 40.479148 40.552181 40.622449 40.689857 40.754383 40.815942 40.874516 40.930033 40.982479 41.031791 41.077959 41.120930 41.160699 41.197221 41.230493 41.260479 41.287178 41.310562 41.330631 41.347364 41.360763 41.370813 41.377516 41.380865 41.380861 41.377504 41.370793 41.360737 41.347334 41.330599 41.310532 41.287153 41.260464 41.230492 41.197240 41.160745 41.121009 41.078078 41.031958 40.982704 40.930325 40.874886 40.816400 40.754942 40.690530 40.623249 40.553123 40.480247 40.404650 40.326439 40.245647 40.162392 40.076712 39.988735 39.898504 39.806154 39.711733 39.615383 39.517157 39.417203 39.315574 39.212423 39.107805 39.001876 38.894689 38.786402 38.677068 38.566842 38.455774 38.344018 38.231620 38.118729 38.005385 37.891733 37.777807 37.663744 37.549572 37.435419 37.321306 37.207354 37.093573 36.980075 36.866864 36.754040 36.641599 36.529631 36.418124 36.307157 36.196710 36.086852 35.977557 35.868880 35.760790 35.653333 35.546470 35.440236 35.334590 35.229555 35.125085 35.021195 34.917835 34.815011 34.712670 34.610808 34.509374 34.408354 34.307695 34.207378 34.107349 34.007582 33.908025 33.808645 33.709393 33.610231 33.511111
33.888889 34.017000 34.145161 34.273427 34.401842 34.530467 34.659337 34.788514 34.918028 35.047943 35.178278 35.309098 35.440413 35.572287 35.704720 35.837773 35.971437 36.105768 36.240745 36.376421 36.512762 36.649817 36.787537 36.925966 37.065041 37.204800 37.345166 37.486166 37.627714 37.769826 37.912402 38.055449 38.198852 38.342611 38.486597 38.630798 38.775074 38.919405 39.063636 39.207739 39.351548 39.495026 39.637998 39.780418 39.922104 40.063002 40.202926 40.341814 40.479475 40.615845 40.750731 40.884064 41.015651 41.145425 41.273193 41.398888 41.522323 41.643432 41.762036 41.878071 41.991365 42.101862 42.209400 42.313927 42.415292 42.513450 42.608263 42.699693 42.787614 42.871996 42.952726 43.029778 43.103057 43.172541 43.238147 43.299860 43.357608 43.411382 43.461122 43.506823 43.548434 43.585953 43.619342 43.648599 43.673695 43.694630 43.711385 43.723959 43.732340 43.736530 43.736525 43.732325 43.723934 43.711353 43.694593 43.673656 43.648562 43.619312 43.585935 43.548434 43.506848 43.461181 43.411483 43.357759 43.300072 43.238431 43.172910 43.103523 43.030355 42.953428 42.872841 42.788618 42.700874 42.609640 42.515044 42.417123 42.316019 42.211777 42.104549 41.994388 41.881458 41.765816 41.647637 41.526983 41.404038 41.278866 41.151659 41.022484 40.891535 40.758880 40.624717 40.489112 40.352262 40.214233 40.075218 39.935277 39.794602 39.653246 39.511395 39.369094 39.226521 39.083714 38.940841 38.797932 38.655142 38.512492 38.370128 38.228058 38.086415 37.945199 37.804529 37.664395 37.524903 37.386032 37.247875 37.110403 36.973693 36.837709 36.702515 36.568066 36.434414 36.301506 36.169380 36.037981 35.907332 35.777373 35.648116 35.519498 35.391518 35.264112 35.137268 35.010921 34.885049 34.759586 34.634503 34.509733 34.385239 34.260958 34.136845 34.012839 33.888889
34.266667 34.420478 34.574353 34.728349 34.882535 35.036960 35.191697 35.346786 35.502304 35.658280 35.814791 35.971858 36.129555 36.287892 36.446942 36.606700 36.767239 36.928539 37.090667 37.253591 37.417371 37.581960 37.747410 37.913659 38.080753 38.248611 38.417270 38.586633 38.756727 38.927438 39.098783 39.270631 39.442987 39.615704 39.788775 39.962038 40.135474 40.308905 40.482301 40.655471 40.828374 41.000805 41.172713 41.343883 41.514256 41.683606 41.851867 42.018809 42.184356 42.348276 42.510489 42.670761 42.829010 42.985003 43.138658 43.289747 43.438188 43.583760 43.726385 43.865852 44.002087 44.134890 44.264194 44.389812 44.511684 44.629639 44.743624 44.853483 44.959173 45.060553 45.157589 45.250154 45.338224 45.421689 45.500529 45.574651 45.644042 45.708623 45.768385 45.823265 45.873256 45.918308 45.958418 45.993547 46.023693 46.048829 46.068954 46.084051 46.094118 46.099149 46.099143 46.094100 46.084022 46.068917 46.048786 46.023648 45.993505 45.958385 45.918289 45.873260 45.823299 45.768459 45.708747 45.644227 45.574910 45.500875 45.422136 45.338788 45.250852 45.158437 45.061573 44.960384 44.854906 44.745283 44.631557 44.513888 44.392328 44.267052 44.138120 44.005721 43.869923 43.730928 43.588811 43.443787 43.295933 43.145473 42.992491 42.837216 42.679733 42.520276 42.358928 42.195928 42.031354 41.865444 41.698272 41.530072 41.360912 41.191019 41.020455 40.849437 40.678017 40.506404 40.334636 40.162912 39.991259 39.819860 39.648733 39.478044 39.307800 39.138151 38.969091 38.800756 38.633127 38.466323 38.300314 38.135201 37.970946 37.807633 37.645214 37.483755 37.323200 37.163602 37.004895 36.847116 36.690195 36.534153 36.378915 36.224488 36.070795 35.917829 35.765509 35.613817 35.462672 35.312045 35.161854 35.012060 34.862583 34.713375 34.564361 34.415481 34.266667
34.644444 34.824001 35.003628 35.183404 35.363393 35.543676 35.724308 35.905376 36.086922 36.269034 36.451745 36.635141 36.819242 37.004134 37.189822 37.376389 37.563824 37.752207 37.941510 38.131806 38.323050 38.515309 38.708518 38.902736 39.097879 39.293997 39.490985 39.688882 39.887565 40.087060 40.287223 40.488067 40.689431 40.891313 41.093532 41.296073 41.498737 41.701495 41.904132 42.106604 42.308681 42.510307 42.711237 42.911405 43.110554 43.308607 43.505299 43.700545 43.894073 44.085792 44.275428 44.462885 44.647888 44.830341 45.009973 45.186686 45.360218 45.530474 45.697200 45.860307 46.019553 46.174856 46.325988 46.472876 46.615309 46.753223 46.886425 47.014859 47.138352 47.256859 47.370226 47.478417 47.581297 47.678838 47.770925 47.857538 47.938578 48.014033 48.083820 48.147934 48.206305 48.258932 48.305762 48.346794 48.381989 48.411347 48.434841 48.452473 48.464226 48.470101 48.470094 48.464205 48.452440 48.434799 48.411299 48.381939 48.346748 48.305726 48.258914 48.206313 48.147978 48.083911 48.014183 47.938799 47.857846 47.771334 47.679366 47.581961 47.479238 47.371224 47.258056 47.139771 47.016527 46.888367 46.755469 46.617889 46.475821 46.329332 46.178633 46.023802 45.865066 45.702510 45.536378 45.366760 45.193913 45.017933 44.839087 44.657472 44.473362 44.286856 44.098231 43.907583 43.715192 43.521148 43.325727 43.129016 42.931282 42.732605 42.533243 42.333265 42.132919 41.932261 41.731527 41.530758 41.330176 41.129808 40.929859 40.730343 40.531445 40.333165 40.135671 39.938948 39.743143 39.548230 39.354336 39.161420 38.969591 38.778798 38.589129 38.400521 38.213044 38.026626 37.841320 37.657045 37.473835 37.291604 37.110369 36.930039 36.750615 36.572003 36.394188 36.217077 36.040638 35.864779 35.689458 35.514580 35.340093 35.165907 34.991958 34.818162 34.644444
35.022222 35.227570 35.433003 35.638601 35.844454 36.050632 36.257230 36.464307 36.671962 36.880238 37.089238 37.298990 37.509596 37.721068 37.933507 38.146907 38.361364 38.576855 38.793469 39.011165 39.230024 39.449984 39.671116 39.893338 40.116710 40.341127 40.566639 40.793116 41.020595 41.248925 41.478128 41.708029 41.938634 42.169749 42.401363 42.633258 42.865409 43.097579 43.329725 43.561592 43.793121 44.024041 44.254279 44.483548 44.711765 44.938629 45.164045 45.387707 45.609509 45.829140 46.046489 46.261241 46.473284 46.682304 46.888189 47.090631 47.289518 47.484554 47.675632 47.862467 48.044959 48.222840 48.396019 48.564245 48.727438 48.885367 49.037964 49.185019 49.326475 49.462146 49.591984 49.715826 49.833636 49.945271 50.050707 50.149821 50.242595 50.328929 50.408812 50.482159 50.548966 50.609167 50.662759 50.709691 50.749965 50.783542 50.810425 50.830590 50.844038 50.850758 50.850750 50.844016 50.830554 50.810379 50.783490 50.749911 50.709642 50.662722 50.609150 50.548981 50.482215 50.408922 50.329106 50.242856 50.150179 50.051183 49.945883 49.834404 49.716772 49.593133 49.463523 49.328108 49.186935 49.040195 48.887945 48.730397 48.567621 48.399852 48.227169 48.049827 47.867917 47.681712 47.491313 47.297007 47.098902 46.897299 46.692312 46.484249 46.273227 46.059562 45.843367 45.624963 45.404458 45.182172 44.958207 44.732878 44.506279 44.278714 44.050267 43.821233 43.591680 43.361889 43.131916 42.902022 42.672248 42.442839 42.213818 41.985409 41.757620 41.530652 41.304499 41.079339 40.855148 40.632084 40.410108 40.189354 39.969769 39.751466 39.534378 39.318595 39.104041 38.890783 38.678735 38.467944 38.258316 38.049878 37.842529 37.636277 37.431018 37.226741 37.023339 36.820785 36.618971 36.417855 36.217330 36.017340 35.817779 35.618581 35.419644 35.220889 35.022222
35.400000 35.631196 35.862485 36.093968 36.325729 36.557875 36.790477 37.023648 37.257444 37.491981 37.727300 37.963516 38.200654 38.438829 38.678044 38.918412 39.159918 39.402667 39.646622 39.891882 40.138389 40.386229 40.635321 40.885742 41.137385 41.390313 41.644396 41.899681 42.156012 42.413422 42.671728 42.930946 43.190867 43.451489 43.712580 43.974119 44.235850 44.497733 44.759490 45.021064 45.282156 45.542692 45.802355 46.061056 46.318463 46.574472 46.828741 47.081154 47.331360 47.579237 47.824428 48.066806 48.306016 48.541926 48.774186 49.002666 49.227025 49.447137 49.662674 49.873515 50.079350 50.280068 50.475377 50.665179 50.849203 51.027364 51.199415 51.365285 51.524750 51.677753 51.824097 51.963737 52.096502 52.222358 52.341157 52.452877 52.557394 52.654693 52.744673 52.827324 52.902566 52.970394 53.030745 53.083619 53.128967 53.166792 53.197061 53.219775 53.234916 53.242485 53.242477 53.234892 53.219737 53.197011 53.166736 53.128910 53.083568 53.030708 52.970382 52.902588 52.827395 52.744804 52.654902 52.557695 52.453291 52.341702 52.223056 52.097377 51.964814 51.825402 51.679315 51.526599 51.367453 51.201938 51.030278 50.852546 50.668993 50.479703 50.284953 50.084840 49.879662 49.669529 49.454756 49.235465 49.011987 48.784451 48.553200 48.318368 48.080308 47.839152 47.595260 47.348761 47.100016 46.849149 46.596516 46.342231 46.086645 45.829861 45.572215 45.313798 45.054932 44.795692 44.536381 44.277057 44.018003 43.759260 43.501088 43.243508 42.986759 42.730840 42.475968 42.222123 41.969495 41.718048 41.467947 41.219139 40.971761 40.725747 40.481210 40.238069 39.996410 39.756144 39.517331 39.279871 39.043805 38.809020 38.575537 38.343239 38.112123 37.882069 37.653057 37.424962 37.197746 36.971287 36.745528 36.520349 36.295679 36.071402 35.847435 35.623666 35.400000
35.777778 36.034880 36.292091 36.549511 36.807257 37.065415 37.324109 37.583412 37.843450 38.104281 38.366032 38.628743 38.892542 39.157447 39.423583 39.690948 39.959661 40.229698 40.501170 40.774027 41.048372 41.324130 41.601392 41.880055 42.160196 42.441686 42.724586 43.008738 43.294185 43.580742 43.868434 44.157045 44.446582 44.736800 45.027685 45.318967 45.610609 45.902315 46.194030 46.485431 46.776444 47.066725 47.356182 47.644451 47.931423 48.216721 48.500220 48.781532 49.060521 49.336792 49.610201 49.880352 50.147096 50.410039 50.669031 50.923687 51.173859 51.419175 51.659493 51.894458 52.123938 52.347597 52.565316 52.776783 52.981894 53.180360 53.372095 53.556837 53.734514 53.904895 54.067922 54.223392 54.371263 54.511360 54.643651 54.767989 54.884354 54.992623 55.092786 55.184741 55.268484 55.343936 55.411098 55.469907 55.520368 55.562436 55.596114 55.621375 55.638221 55.646639 55.646630 55.638195 55.621334 55.596062 55.562377 55.520309 55.469856 55.411064 55.343929 55.268517 55.184827 55.092941 54.992864 54.884700 54.768459 54.644269 54.512148 54.372249 54.224602 54.069386 53.906644 53.736584 53.559262 53.374914 53.183614 52.985625 52.781037 52.570141 52.353042 52.130057 51.901306 51.667129 51.427659 51.183256 50.934062 50.680456 50.422585 50.160841 49.895373 49.626581 49.354614 49.079876 48.802509 48.522916 48.241233 47.957854 47.672903 47.386765 47.099549 46.811624 46.523083 46.234276 45.945279 45.656418 45.367749 45.079577 44.791934 44.505099 44.219085 43.934143 43.650265 43.367673 43.086339 42.806457 42.527980 42.251072 41.975670 41.701909 41.429708 41.159177 40.890219 40.622916 40.357160 40.093007 39.830338 39.569186 39.309422 39.051054 38.793951 38.538097 38.283357 38.029695 37.776974 37.525141 37.274058 37.023654 36.773797 36.524400 36.275334 36.026500 35.777778
36.155556 36.438632 36.721824 37.005259 37.289039 37.573300 37.858129 38.143667 38.429986 38.717228 39.005446 39.294785 39.585275 39.877059 40.170147 40.464674 40.760626 41.058134 41.357156 41.657813 41.960035 42.263933 42.569407 42.876554 43.185244 43.495557 43.807333 44.120633 44.435266 44.751273 45.068431 45.386758 45.706002 46.026158 46.346942 46.668326 46.989997 47.311903 47.633703 47.955324 48.276398 48.596829 48.916228 49.234480 49.551176 49.866182 50.179075 50.489708 50.797647 51.102734 51.404529 51.702868 51.997311 52.287691 52.573574 52.854794 53.130930 53.401820 53.667060 53.926496 54.179746 54.426669 54.666907 54.900336 55.126624 55.345664 55.557156 55.761009 55.956956 56.144924 56.324676 56.496157 56.659162 56.813653 56.959452 57.096536 57.224756 57.344100 57.454445 57.555786 57.648027 57.731168 57.805133 57.869927 57.925492 57.971835 58.008918 58.036744 58.055292 58.064565 58.064556 58.055265 58.036702 58.008864 57.971776 57.925433 57.869877 57.805103 57.731169 57.648073 57.555892 57.454627 57.344377 57.225150 57.097068 56.960146 56.814536 56.660262 56.497505 56.326303 56.146867 55.959251 55.763697 55.560276 55.349264 55.130749 54.905036 54.672235 54.432681 54.186498 53.934051 53.675481 53.411176 53.141289 52.866231 52.586164 52.301516 52.012453 51.719414 51.422570 51.122363 50.818961 50.512808 50.204065 49.893170 49.580273 49.265803 48.949893 48.632960 48.315120 47.996767 47.677999 47.359190 47.040412 46.722015 46.404049 46.086835 45.770400 45.455034 45.140742 44.827783 44.516137 44.206033 43.897429 43.590522 43.285250 42.981778 42.680024 42.380123 42.081975 41.785685 41.491140 41.198413 40.907380 40.618085 40.330394 40.044326 39.759737 39.476622 39.194832 38.914338 38.634989 38.356733 38.079419 37.802977 37.527257 37.252171 36.977573 36.703360 36.429393 36.155556
36.533333 36.842451 37.151702 37.461209 37.771116 38.081528 38.392597 38.704413 39.017132 39.330822 39.645643 39.961643 40.278978 40.597674 40.917883 41.239605 41.562986 41.887999 42.214781 42.543275 42.873605 43.205685 43.539625 43.875306 44.212820 44.552014 44.892965 45.235482 45.579621 45.925158 46.272125 46.620263 46.969579 47.319780 47.670848 48.022457 48.374561 48.726803 49.079113 49.431102 49.782676 50.133419 50.483212 50.831619 51.178498 51.523393 51.866146 52.206287 52.543642 52.877732 53.208375 53.535088 53.857683 54.175682 54.488895 54.796854 55.099374 55.396000 55.686558 55.970613 56.248003 56.518321 56.781419 57.036921 57.284696 57.524402 57.755928 57.978966 58.193426 58.399035 58.595724 58.783253 58.961574 59.130480 59.289940 59.439779 59.579980 59.710398 59.831027 59.941750 60.042567 60.133388 60.214216 60.284984 60.345698 60.396308 60.436822 60.467208 60.487471 60.497597 60.497588 60.487444 60.467165 60.436768 60.396248 60.345640 60.284938 60.214193 60.133399 60.042629 59.941878 59.831240 59.710716 59.580425 59.440375 59.290714 59.131461 58.962793 58.784743 58.597520 58.401175 58.195952 57.981920 57.759356 57.528352 57.289221 57.042072 56.787257 56.524904 56.255396 55.978880 55.695771 55.406232 55.110702 54.809357 54.502658 54.190790 53.874229 53.553165 53.228083 52.899172 52.566922 52.231514 51.893437 51.552863 51.210270 50.865817 50.519968 50.172863 49.824948 49.476342 49.127467 48.778419 48.429592 48.081058 47.733181 47.386006 47.039867 46.694781 46.351049 46.008662 45.667886 45.328687 44.991298 44.655660 44.321970 43.990148 43.660357 43.332498 43.006698 42.682841 42.361022 42.041110 41.723169 41.407054 41.092800 40.780253 40.469419 40.160136 39.852384 39.545997 39.240931 38.937018 38.634190 38.332282 38.031205 37.730797 37.430950 37.131510 36.832354 36.533333
36.911111 37.246347 37.581724 37.917393 38.253481 38.590149 38.927506 39.265720 39.604879 39.945155 40.286615 40.629430 40.973644 41.319425 41.666788 42.015899 42.366743 42.719477 43.074056 43.430624 43.789105 44.149629 44.512083 44.876582 45.242978 45.611364 45.981557 46.353627 46.727353 47.102780 47.479651 47.857983 48.237482 48.618136 48.999615 49.381878 49.764559 50.147589 50.530565 50.913394 51.295639 51.677180 52.057553 52.436613 52.813872 53.189164 53.561981 53.932139 54.299118 54.662721 55.022421 55.378010 55.728964 56.075071 56.415813 56.750982 57.080072 57.402883 57.718931 58.028026 58.329710 58.623812 58.909904 59.187834 59.457209 59.717899 59.969551 60.212055 60.445097 60.668593 60.882267 61.086056 61.279722 61.463222 61.636357 61.799100 61.951283 62.092897 62.223803 62.344002 62.453386 62.551959 62.639638 62.716433 62.782283 62.837197 62.881133 62.914100 62.936075 62.947060 62.947051 62.936047 62.914058 62.881079 62.837139 62.782228 62.716393 62.639623 62.551983 62.453465 62.344155 62.224049 62.093257 61.951783 61.799765 61.637215 61.464306 61.281064 61.087692 60.884236 60.670937 60.447858 60.215281 59.973290 59.722206 59.462137 59.193444 58.916256 58.630973 58.337748 58.037013 57.728942 57.413999 57.092374 56.764558 56.430753 56.091470 55.746919 55.397626 55.043802 54.685981 54.324369 53.959501 53.591577 53.221122 52.848323 52.473695 52.097404 51.719946 51.341467 50.962439 50.582983 50.203542 49.824211 49.445401 49.067179 48.689922 48.313666 47.938754 47.565193 47.193288 46.823018 46.454650 46.088135 45.723703 45.361280 45.001058 44.642940 44.287080 43.933362 43.581902 43.232568 42.885441 42.540372 42.197411 41.856396 41.517345 41.180086 40.844610 40.510738 40.178431 39.847508 39.517906 39.189442 38.862030 38.535489 38.209713 37.884527 37.559805 37.235380 36.911111
37.288889 37.650318 38.011907 38.373802 38.736174 39.099151 39.462914 39.827571 40.193307 40.560208 40.928461 41.298128 41.669394 42.042293 42.417008 42.793541 43.172067 43.552557 43.935175 44.319859 44.706757 45.095771 45.487033 45.880407 46.276004 46.673649 47.073430 47.475133 47.878819 48.284232 48.691406 49.100045 49.510152 49.921389 50.333730 50.746796 51.160529 51.574511 51.988654 52.402503 52.815939 53.228476 53.639963 54.049887 54.458073 54.863982 55.267417 55.667822 56.064981 56.458328 56.847636 57.232333 57.612185 57.986625 58.355420 58.718012 59.074175 59.423370 59.765380 60.099696 60.426115 60.744160 61.053649 61.354142 61.645482 61.927267 62.199367 62.461423 62.713332 62.954777 63.185680 63.405768 63.614986 63.813103 64.000084 64.175737 64.340044 64.492847 64.634144 64.763807 64.881843 64.988152 65.082748 65.165555 65.236586 65.295790 65.343179 65.378718 65.402417 65.414260 65.414251 65.402390 65.378676 65.343127 65.295735 65.236537 65.165521 65.082744 64.988192 64.881943 64.763987 64.634426 64.493254 64.340602 64.176474 64.001032 63.814294 63.616457 63.407556 63.187828 62.957328 62.716335 62.464927 62.203425 61.931935 61.650821 61.360215 61.060523 60.751904 60.434805 60.109407 59.776196 59.435374 59.087458 58.732667 58.371545 58.004321 57.631558 57.253493 56.870699 56.483412 56.092211 55.697324 55.299327 54.898434 54.495212 54.089857 53.682917 53.274567 52.865331 52.455358 52.045143 51.634807 51.224811 50.815245 50.406535 49.998738 49.592242 49.187073 48.783578 48.381750 47.981896 47.583980 47.188266 46.794688 46.403472 46.014525 45.628030 45.243872 44.862195 44.482862 44.105978 43.731389 43.359164 42.989134 42.621331 42.255576 41.891869 41.530021 41.170002 40.811616 40.454807 40.099376 39.745241 39.392203 39.040157 38.688908 38.338330 37.988237 37.638482 37.288889
37.666667 38.054373 38.442246 38.830465 39.219180 39.608582 39.998801 40.390034 40.782389 41.176067 41.571151 41.967843 42.366196 42.766410 43.168508 43.572683 43.978925 44.387417 44.798113 45.211182 45.626542 46.044344 46.464467 46.887041 47.311904 47.739162 48.168610 48.600329 49.034069 49.469880 49.907470 50.346857 50.787703 51.229994 51.673347 52.117715 52.562669 53.008129 53.453627 53.899046 54.343880 54.787980 55.230807 55.672179 56.111530 56.548652 56.982954 57.414205 57.841800 58.265491 58.684662 59.099058 59.508062 59.911412 60.308502 60.699074 61.082538 61.458644 61.826828 62.186857 62.538198 62.880641 63.213689 63.537159 63.850596 64.153846 64.446501 64.728434 64.999287 65.258962 65.507147 65.743773 65.968573 66.181505 66.382345 66.571070 66.747497 66.911621 67.063294 67.202523 67.329192 67.443316 67.544807 67.633681 67.709876 67.773408 67.824235 67.862368 67.887785 67.900492 67.900483 67.887759 67.862328 67.824185 67.773358 67.709833 67.633658 67.544816 67.443374 67.329317 67.202735 67.063616 66.912079 66.748118 66.571885 66.383386 66.182808 65.970177 65.745718 65.509478 65.261727 65.002536 64.732221 64.450882 64.158883 63.856352 63.543702 63.221090 62.888976 62.547546 62.197301 61.838454 61.471545 61.096808 60.714816 60.325818 59.930412 59.528858 59.121770 58.709412 58.292407 57.871014 57.445856 57.017182 56.585607 56.151361 55.715046 55.276869 54.837407 54.396840 53.955719 53.514193 53.072776 52.631586 52.191099 51.751397 51.312917 50.875705 50.440154 50.006277 49.574421 49.144565 48.717013 48.291710 47.868916 47.448546 47.030817 46.615614 46.203112 45.793173 45.385929 44.981220 44.579139 44.179509 43.782382 43.387569 42.995085 42.604729 42.216484 41.830140 41.445648 41.062796 40.681505 40.301561 39.922859 39.545188 39.168420 38.792349 38.416826 38.041655 37.666667