<?xml version="1.0"?>
<VTKFile type="ImageData" version="0.1" byte_order="LittleEndian">
  <ImageData WholeExtent="0 180 0 180 0 0" Origin="0.0 0.0 0.0" Spacing="0.05 0.05 1">
    <Piece Extent="0 180 0 180 0 0">
      <PointData Scalars="Temperature">
        <DataArray type="Float32" Name="Temperature" format="ascii">
32.000000 32.000000 32.000000 32.000000 32.000000 32.000000 32.000000 32.000000 32.000000 32.000000 32.000000 32.000000 32.000000 32.000000 32.000000 32.000000 32.000000 32.000000 32.000000 32.000000 32.000000 32.000000 32.000000 32.000000 32.000000 32.000000 32.000000 32.000000 32.000000 32.000000 32.000000 32.000000 32.000000 32.000000 32.000000 32.000000 32.000000 32.000000 32.000000 32.000000 32.000000 32.000000 32.000000 32.000000 32.000000 32.000000 32.000000 32.000000 32.000000 32.000000 32.000000 32.000000 32.000000 32.000000 32.000000 32.000000 32.000000 32.000000 32.000000 32.000000 32.000000 32.000000 32.000000 32.000000 32.000000 32.000000 32.000000 32.000000 32.000000 32.000000 32.000000 32.000000 32.000000 32.000000 32.000000 32.000000 32.000000 32.000000 32.000000 32.000000 32.000000 32.000000 32.000000 32.000000 32.000000 32.000000 32.000000 32.000000 32.000000 32.000000 32.000000 32.000000 32.000000 32.000000 32.000000 32.000000 32.000000 32.000000 32.000000 32.000000 32.000000 32.000000 32.000000 32.000000 32.000000 32.000000 32.000000 32.000000 32.000000 32.000000 32.000000 32.000000 32.000000 32.000000 32.000000 32.000000 32.000000 32.000000 32.000000 32.000000 32.000000 32.000000 32.000000 32.000000 32.000000 32.000000 32.000000 32.000000 32.000000 32.000000 32.000000 32.000000 32.000000 32.000000 32.000000 32.000000 32.000000 32.000000 32.000000 32.000000 32.000000 32.000000 32.000000 32.000000 32.000000 32.000000 32.000000 32.000000 32.000000 32.000000 32.000000 32.000000 32.000000 32.000000 32.000000 32.000000 32.000000 32.000000 32.000000 32.000000 32.000000 32.000000 32.000000 32.000000 32.000000 32.000000 32.000000 32.000000 32.000000 32.000000 32.000000 32.000000 32.000000 32.000000 32.000000 32.000000 32.000000 32.000000 32.000000 32.000000 32.000000
32.377778 32.373482 32.369219 32.365025 32.360926 32.356966 32.353163 32.349566 32.346188 32.343080 32.340248 32.337750 32.335583 32.333808 32.332415 32.331468 32.330950 32.330927 32.331374 32.332361 32.333851 32.335920 32.338520 32.341729 32.345491 32.349885 32.354845 32.360453 32.366632 32.373466 32.380868 32.388923 32.397536 32.406790 32.416581 32.426995 32.437917 32.449433 32.461421 32.473965 32.486936 32.500419 32.514277 32.528593 32.543227 32.558259 32.573545 32.589164 32.604968 32.621037 32.637218 32.653592 32.670003 32.686532 32.703025 32.719559 32.735983 32.752373 32.768581 32.784682 32.800532 32.816204 32.831559 32.846670 32.861404 32.875831 32.889827 32.903460 32.916612 32.929349 32.941564 32.953317 32.964511 32.975204 32.985307 32.994874 33.003827 33.012214 33.019967 33.027130 33.033644 33.039546 33.044790 33.049405 33.053355 33.056663 33.059302 33.061288 33.062605 33.063262 33.063252 33.062576 33.061239 33.059232 33.056572 33.053243 33.049271 33.044633 33.039365 33.033437 33.026896 33.019704 33.011921 33.003502 32.994515 32.984911 32.974769 32.964035 32.952797 32.940997 32.928733 32.915943 32.902734 32.889042 32.874982 32.860487 32.845682 32.830496 32.815062 32.799306 32.783369 32.767175 32.750870 32.734378 32.717848 32.701203 32.684594 32.667944 32.651407 32.634904 32.618587 32.602379 32.586431 32.570663 32.555225 32.540036 32.525243 32.510763 32.496738 32.483086 32.469943 32.457225 32.445062 32.433369 32.422270 32.411679 32.401711 32.392282 32.383496 32.375271 32.367701 32.360704 32.354367 32.348607 32.343502 32.338971 32.335081 32.331753 32.329045 32.326881 32.325308 32.324252 32.323752 32.323736 32.324235 32.325180 32.326592 32.328406 32.330635 32.333216 32.336157 32.339398 32.342937 32.346720 32.350739 32.354943 32.359316 32.363815 32.368416 32.373080 32.377778
32.755556 32.746985 32.738484 32.730111 32.721946 32.714034 32.706468 32.699279 32.692568 32.686352 32.680743 32.675742 32.671470 32.667911 32.665195 32.663290 32.662331 32.662272 32.663252 32.665208 32.668285 32.672401 32.677708 32.684103 32.691742 32.700505 32.710550 32.721738 32.734232 32.747871 32.762819 32.778900 32.796277 32.814754 32.834499 32.855294 32.877308 32.900307 32.924459 32.949515 32.975640 33.002573 33.030477 33.059076 33.088536 33.118567 33.149334 33.180540 33.212345 33.244449 33.277009 33.309721 33.342742 33.375764 33.408944 33.441977 33.475016 33.507760 33.540361 33.572527 33.604404 33.635711 33.666593 33.696777 33.726408 33.755226 33.783370 33.810598 33.837044 33.862483 33.887041 33.910513 33.933019 33.954372 33.974684 33.993788 34.011786 34.028532 34.044119 34.058419 34.071514 34.083298 34.093839 34.103052 34.110992 34.117595 34.122900 34.126865 34.129513 34.130824 34.130804 34.129455 34.126767 34.122761 34.117415 34.110769 34.102784 34.093524 34.082935 34.071100 34.057951 34.043593 34.027946 34.011136 33.993069 33.973893 33.953503 33.932068 33.909474 33.885908 33.861250 33.835705 33.809147 33.781799 33.753528 33.724575 33.694803 33.664468 33.633428 33.601954 33.569900 33.537550 33.504754 33.471806 33.438555 33.405300 33.371888 33.338624 33.305352 33.272380 33.239550 33.207167 33.175074 33.143572 33.112500 33.082156 33.052377 33.023450 32.995213 32.967941 32.941472 32.916069 32.891566 32.868213 32.845845 32.824696 32.804598 32.785771 32.768047 32.751626 32.736342 32.722378 32.709569 32.698077 32.687742 32.678705 32.670809 32.664178 32.658656 32.654349 32.651105 32.649013 32.647925 32.647911 32.648830 32.650733 32.653486 32.657124 32.661519 32.666689 32.672515 32.678999 32.686030 32.693596 32.701592 32.709995 32.718708 32.727695 32.736869 32.746181 32.755556
33.133333 33.120534 33.107830 33.095336 33.083128 33.071337 33.060021 33.049325 33.039285 33.030062 33.021670 33.014283 33.007892 33.002682 32.998622 32.995907 32.994481 32.994551 32.996032 32.999140 33.003765 33.010132 33.018100 33.027902 33.039370 33.052742 33.067821 33.084849 33.103601 33.124322 33.146759 33.171161 33.197243 33.225257 33.254892 33.286400 33.319442 33.354270 33.390522 33.428448 33.467663 33.508415 33.550300 33.593563 33.637782 33.683201 33.729382 33.776567 33.824307 33.872840 33.921712 33.971157 34.020717 34.070625 34.120422 34.170339 34.219920 34.269395 34.318318 34.366912 34.414744 34.462036 34.508370 34.553962 34.598414 34.641937 34.684155 34.725273 34.764940 34.803352 34.840183 34.875622 34.909372 34.941609 34.972066 35.000904 35.027889 35.053167 35.076533 35.098118 35.117748 35.135534 35.151334 35.165240 35.177140 35.187106 35.195057 35.201041 35.205009 35.206987 35.206958 35.204921 35.200893 35.194848 35.186835 35.176805 35.164838 35.150863 35.134990 35.117127 35.097416 35.075746 35.052289 35.026914 34.999827 34.970879 34.940306 34.907945 34.874063 34.838484 34.801503 34.762932 34.723096 34.681799 34.639390 34.595665 34.551000 34.505183 34.458611 34.411069 34.362972 34.314101 34.264887 34.215107 34.165206 34.114956 34.064811 34.014541 33.964605 33.914768 33.865493 33.816541 33.768369 33.720740 33.674102 33.628214 33.583515 33.539761 33.497376 33.456115 33.416385 33.377937 33.341159 33.305802 33.272228 33.240190 33.210026 33.181486 33.154885 33.129972 33.107034 33.085824 33.066599 33.049116 33.033604 33.019821 33.007969 32.997812 32.989522 32.982869 32.977997 32.974683 32.973043 32.972863 32.974232 32.976944 32.981062 32.986391 32.992969 33.000611 33.009332 33.018958 33.029482 33.040742 33.052710 33.065237 33.078274 33.091687 33.105409 33.119320 33.133333
33.511111 33.494142 33.477314 33.460742 33.444590 33.428947 33.413999 33.399808 33.386579 33.374347 33.363335 33.353547 33.345223 33.338336 33.333142 33.329582 33.327925 33.328077 33.330321 33.334527 33.340991 33.349544 33.360493 33.373632 33.389276 33.407180 33.427667 33.450453 33.475866 33.503586 33.533941 33.566575 33.601820 33.639279 33.679287 33.721413 33.765989 33.812551 33.861431 33.912131 33.964982 34.019458 34.075886 34.133715 34.193271 34.253978 34.316159 34.379223 34.443488 34.508350 34.574126 34.640202 34.706892 34.773581 34.840578 34.907272 34.973969 35.040067 35.105866 35.170779 35.235103 35.298269 35.360567 35.421455 35.481215 35.539331 35.596081 35.650978 35.704290 35.755566 35.805061 35.852362 35.897710 35.940731 35.981649 36.020129 36.056379 36.090104 36.121490 36.150285 36.176649 36.200373 36.221593 36.240140 36.256122 36.269412 36.280090 36.288070 36.293399 36.296037 36.295998 36.293282 36.287872 36.279812 36.269051 36.255675 36.239604 36.220965 36.199648 36.175822 36.149349 36.120441 36.088934 36.055080 36.018693 35.980067 35.938994 35.895808 35.850284 35.802796 35.753101 35.701613 35.648076 35.592940 35.535937 35.477551 35.417507 35.356319 35.293703 35.230203 35.165527 35.100244 35.034057 34.967552 34.900430 34.833291 34.765830 34.698658 34.631467 34.564870 34.498555 34.433135 34.368294 34.304637 34.241847 34.180515 34.120319 34.061837 34.004741 33.949588 33.896050 33.844655 33.795073 33.747806 33.702521 33.659689 33.618975 33.580816 33.544879 33.511564 33.480541 33.452172 33.426129 33.402737 33.381672 33.363222 33.347067 33.333457 33.322079 33.313146 33.306354 33.301877 33.299422 33.299126 33.300707 33.304269 33.309540 33.316592 33.325165 33.335299 33.346751 33.359528 33.373403 33.388354 33.404172 33.420805 33.438065 33.455874 33.474060 33.492522 33.511111
33.888889 33.867843 33.846959 33.826426 33.806375 33.787024 33.768470 33.750956 33.734545 33.719505 33.705861 33.693903 33.683619 33.675319 33.668950 33.664841 33.662897 33.663464 33.666403 33.672076 33.680298 33.691445 33.705284 33.722204 33.741924 33.764843 33.790632 33.819695 33.851658 33.886931 33.925088 33.966546 34.010832 34.058363 34.108621 34.162024 34.218009 34.276994 34.338374 34.402565 34.468924 34.537863 34.608706 34.681861 34.756622 34.833392 34.911442 34.991170 35.071827 35.153809 35.236353 35.319849 35.403531 35.487784 35.571841 35.656084 35.739753 35.823226 35.905757 35.987718 36.068386 36.148126 36.226241 36.303090 36.378010 36.451348 36.522480 36.591743 36.658554 36.723237 36.785253 36.844912 36.901721 36.955972 37.007222 37.055741 37.101137 37.143654 37.182952 37.219249 37.252255 37.282157 37.308719 37.332094 37.352098 37.368847 37.382210 37.392267 37.398937 37.402261 37.402212 37.398790 37.392020 37.381863 37.368396 37.351540 37.331425 37.307935 37.281251 37.251221 37.218080 37.181641 37.142191 37.099513 37.053947 37.005246 36.953802 36.899345 36.842316 36.782423 36.720158 36.655209 36.588117 36.518555 36.447106 36.373432 36.298157 36.220933 36.142421 36.062263 35.981155 35.898732 35.815715 35.731734 35.647533 35.562734 35.478098 35.393241 35.308932 35.224784 35.141566 35.058888 34.977511 34.897042 34.818231 34.740679 34.665119 34.591147 34.519472 34.449686 34.382468 34.317409 34.255153 34.195286 34.138417 34.084129 34.032991 33.984585 33.939436 33.897127 33.858137 33.822052 33.789304 33.759484 33.732975 33.709375 33.689018 33.671510 33.657139 33.645519 33.636891 33.630881 33.627683 33.626937 33.628793 33.632904 33.639379 33.647885 33.658491 33.670882 33.685085 33.700808 33.718038 33.736504 33.756159 33.776752 33.798202 33.820284 33.842883 33.865799 33.888889
34.266667 34.241644 34.216833 34.192411 34.168624 34.145608 34.123644 34.102827 34.083466 34.065614 34.049609 34.035458 34.023523 34.013766 34.006572 34.001852 34.000014 34.000918 34.004990 34.012036 34.022500 34.036133 34.053394 34.073976 34.098350 34.126155 34.157870 34.193075 34.232258 34.274941 34.321618 34.371751 34.425840 34.483290 34.544601 34.609125 34.677363 34.748612 34.823372 34.900894 34.981672 35.064913 35.151109 35.239427 35.330354 35.423024 35.517918 35.614145 35.712180 35.811113 35.911414 36.012161 36.113818 36.215463 36.317551 36.419167 36.520761 36.621430 36.721619 36.820446 36.918351 37.014481 37.109266 37.201892 37.292779 37.381153 37.467426 37.550871 37.631885 37.709794 37.784979 37.856820 37.925678 37.990993 38.053101 38.111502 38.166505 38.217671 38.265279 38.308952 38.348932 38.384905 38.417076 38.445193 38.469418 38.489563 38.505745 38.517840 38.525917 38.529915 38.529856 38.525741 38.517545 38.505329 38.489022 38.468749 38.444391 38.416135 38.383819 38.347692 38.307551 38.263707 38.215918 38.164558 38.109350 38.050731 37.988390 37.922828 37.853706 37.781585 37.706101 37.627874 37.546522 37.462719 37.376065 37.287288 37.195974 37.102898 37.007637 36.911006 36.812573 36.713191 36.612420 36.511141 36.408908 36.306626 36.203842 36.101474 35.999063 35.897535 35.796426 35.696656 35.597758 35.500642 35.404834 35.311227 35.219341 35.130043 35.042848 34.958592 34.876784 34.798221 34.722409 34.650103 34.580805 34.515221 34.452854 34.394356 34.339231 34.288079 34.240404 34.196750 34.156625 34.120516 34.087937 34.059319 34.034182 34.012899 33.995002 33.980806 33.969856 33.962412 33.958032 33.956922 33.958656 33.963388 33.970711 33.980727 33.993050 34.007735 34.024415 34.043101 34.063450 34.085426 34.108716 34.133241 34.158713 34.185016 34.211891 34.239183 34.266667
34.644444 34.615581 34.586946 34.558809 34.531354 34.504889 34.479552 34.455688 34.433385 34.413023 34.394638 34.378640 34.365012 34.354193 34.346109 34.341225 34.339408 34.341147 34.346248 34.355219 34.367805 34.384531 34.405077 34.429985 34.458866 34.492276 34.529759 34.571881 34.618118 34.669042 34.724063 34.783758 34.847469 34.915776 34.987956 35.064590 35.144890 35.229438 35.317387 35.409314 35.504319 35.602973 35.704328 35.808950 35.915847 36.025580 36.137121 36.251026 36.366240 36.483310 36.601166 36.720348 36.839777 36.959987 37.079899 37.200042 37.319349 37.438341 37.555973 37.672758 37.787681 37.901248 38.012482 38.121880 38.228512 38.332862 38.434054 38.532558 38.627556 38.719501 38.807640 38.892403 38.973103 39.050147 39.122918 39.191792 39.256222 39.316552 39.372307 39.423792 39.470604 39.513006 39.550668 39.583805 39.612161 39.635901 39.654842 39.669093 39.678547 39.683258 39.683190 39.678342 39.668749 39.654356 39.635271 39.611382 39.582870 39.549571 39.511739 39.469160 39.422159 39.370475 39.314508 39.253953 39.189284 39.120156 39.047114 38.969781 38.888773 38.803682 38.715195 38.622879 38.527487 38.428565 38.326930 38.222110 38.114980 38.005057 37.893267 37.779115 37.663576 37.546144 37.427833 37.308130 37.188078 37.067157 36.946433 36.825379 36.705072 36.584979 36.466180 36.348134 36.231913 36.116972 36.004365 35.893538 35.785523 35.679758 35.577239 35.477400 35.381195 35.288053 35.198879 35.113098 35.031562 34.953693 34.880283 34.810754 34.745838 34.684954 34.628772 34.576715 34.529385 34.486209 34.447724 34.413365 34.383601 34.357877 34.336596 34.319215 34.306071 34.296638 34.291187 34.289211 34.290919 34.295821 34.304069 34.315195 34.329291 34.345917 34.365108 34.386450 34.409925 34.435150 34.462056 34.490291 34.519739 34.550080 34.581154 34.612677 34.644444
35.022222 34.989657 34.957378 34.925624 34.894726 34.864872 34.836436 34.809551 34.784631 34.761751 34.741364 34.723482 34.708594 34.696649 34.688165 34.683027 34.681781 34.684243 34.690984 34.701748 34.717130 34.736800 34.761372 34.790439 34.824632 34.863468 34.907591 34.956439 35.010665 35.069632 35.133997 35.203047 35.277443 35.356394 35.440565 35.529091 35.622634 35.720260 35.822628 35.928737 36.039244 36.153087 36.270914 36.391614 36.515826 36.642394 36.771950 36.903303 37.037076 37.172052 37.308847 37.446229 37.584805 37.723341 37.862437 38.000864 38.139216 38.276283 38.412652 38.547142 38.680330 38.811079 38.939954 39.065866 39.189371 39.309437 39.426605 39.539909 39.649874 39.755601 39.857595 39.955032 40.048393 40.136931 40.221095 40.300221 40.374721 40.444012 40.508466 40.567584 40.621689 40.670367 40.713889 40.751925 40.784689 40.811934 40.833817 40.850172 40.861095 40.866501 40.866423 40.860860 40.849780 40.833263 40.811215 40.783799 40.750858 40.712638 40.668922 40.620040 40.565720 40.506374 40.441679 40.372130 40.297358 40.217941 40.133467 40.044599 39.950888 39.853076 39.750683 39.644533 39.534118 39.420336 39.302661 39.182058 39.057984 38.931471 38.801962 38.670546 38.536654 38.401424 38.264279 38.126398 37.987196 37.847879 37.707857 37.568356 37.428776 37.290353 37.152480 37.016390 36.881466 36.748930 36.618155 36.490339 36.364848 36.242843 36.123685 36.008491 35.896612 35.789116 35.685348 35.586316 35.491361 35.401426 35.315850 35.235506 35.159732 35.089330 35.023638 34.963382 34.907906 34.857860 34.812594 34.772681 34.737481 34.707490 34.682080 34.661673 34.645656 34.634376 34.627239 34.624519 34.625646 34.630821 34.639498 34.651812 34.667244 34.685864 34.707181 34.731205 34.757476 34.785944 34.816186 34.848094 34.881283 34.915591 34.950674 34.986319 35.022222
35.400000 35.363913 35.328124 35.292984 35.258734 35.225774 35.194288 35.164721 35.137193 35.112195 35.089778 35.070474 35.054266 35.041720 35.032747 35.027948 35.027156 35.031003 35.039244 35.052535 35.070551 35.093972 35.122386 35.156495 35.195801 35.241021 35.291569 35.348176 35.410168 35.478283 35.551759 35.631342 35.716182 35.807027 35.902943 36.004676 36.111210 36.223291 36.339824 36.461549 36.587302 36.717814 36.851858 36.990155 37.131425 37.276379 37.423691 37.574062 37.726133 37.880595 38.036064 38.193223 38.350680 38.509106 38.667111 38.825361 38.982479 39.139123 39.293944 39.447591 39.598756 39.748078 39.894300 40.038050 40.178133 40.315161 40.448011 40.577278 40.701915 40.822497 40.938059 41.049151 41.154894 41.255807 41.351102 41.441261 41.525586 41.604518 41.677451 41.744777 41.805985 41.861410 41.910634 41.953934 41.990985 42.021997 42.046740 42.065355 42.077704 42.083858 42.083771 42.077441 42.064914 42.046118 42.021189 41.989985 41.952735 41.909228 41.859786 41.804132 41.742683 41.675101 41.601896 41.522676 41.438043 41.347558 41.251915 41.150631 41.044493 40.932980 40.816970 40.695912 40.570769 40.440964 40.307544 40.169911 40.029190 39.884764 39.737828 39.587755 39.435798 39.281319 39.125625 38.968066 38.809991 38.650741 38.491693 38.332181 38.173596 38.015266 37.858584 37.702869 37.549505 37.397801 37.249120 37.102762 36.960055 36.820289 36.684750 36.552718 36.425423 36.302139 36.184033 36.070371 35.962251 35.858934 35.761441 35.669031 35.582645 35.501541 35.426578 35.357014 35.293624 35.235672 35.183845 35.137417 35.096988 35.061843 35.032497 35.008251 34.989534 34.975668 34.966998 34.962867 34.963542 34.968391 34.977602 34.990573 35.007417 35.027563 35.051053 35.077351 35.106431 35.137794 35.171349 35.206637 35.243506 35.281541 35.320530 35.360105 35.400000
35.777778 35.738344 35.699275 35.660872 35.623557 35.587568 35.553380 35.521163 35.491441 35.464313 35.440349 35.419573 35.402597 35.389366 35.380531 35.375953 35.376320 35.381405 35.391928 35.407574 35.429088 35.456064 35.489270 35.528204 35.573656 35.625026 35.683118 35.747235 35.818194 35.895198 35.979071 36.068918 36.165568 36.268031 36.377133 36.491793 36.612835 36.739086 36.871366 37.008420 37.151059 37.297952 37.449901 37.605509 37.765565 37.928616 38.095441 38.264541 38.436683 38.610337 38.786259 38.962900 39.141003 39.319019 39.497680 39.675445 39.853039 40.028945 40.203879 40.376363 40.547103 40.714673 40.879768 41.041026 41.199129 41.352787 41.502670 41.647569 41.788132 41.923241 42.053521 42.177948 42.297115 42.410097 42.517453 42.618357 42.713324 42.801634 42.883747 42.959048 43.027942 43.089916 43.145310 43.193715 43.235403 43.270066 43.297902 43.318706 43.332599 43.339477 43.339380 43.332307 43.318217 43.297212 43.269170 43.234294 43.192386 43.143750 43.088115 43.025887 42.956725 42.881139 42.798724 42.710095 42.614787 42.513520 42.405778 42.292383 42.172777 42.047884 41.917106 41.781468 41.640342 41.494847 41.344331 41.190001 41.031188 40.869180 40.703292 40.534887 40.363267 40.189859 40.013955 39.837033 39.658375 39.479499 39.299680 39.120459 38.941101 38.763160 38.585891 38.410845 38.237266 38.066686 37.898340 37.733730 37.572077 37.414840 37.261230 37.112649 36.968298 36.829514 36.695487 36.567482 36.444680 36.328264 36.217410 36.113213 36.014848 35.923316 35.837794 35.759188 35.686678 35.621075 35.561565 35.508863 35.462167 35.422095 35.387858 35.359981 35.337694 35.321427 35.310435 35.305054 35.304568 35.309224 35.318335 35.332066 35.349761 35.371504 35.396677 35.425285 35.456750 35.491004 35.527512 35.566135 35.606386 35.648057 35.690712 35.734080 35.777778
36.155556 36.112999 36.070813 36.029433 35.989161 35.950495 35.913662 35.879215 35.847308 35.818546 35.792999 35.771323 35.753503 35.740239 35.731427 35.727808 35.729184 35.736332 35.748958 35.767871 35.792677 35.824212 35.861979 35.906837 35.958183 36.016895 36.082262 36.155177 36.234819 36.322091 36.416065 36.517649 36.625805 36.741445 36.863425 36.992654 37.127888 37.270030 37.417741 37.571913 37.731121 37.896246 38.065783 38.240600 38.419125 38.602211 38.788230 38.978022 39.169915 39.364737 39.560787 39.758880 39.957303 40.156860 40.355843 40.555042 40.752771 40.949811 41.144509 41.337639 41.527598 41.715149 41.898755 42.079166 42.254922 42.426760 42.593306 42.755279 42.911401 43.062367 43.207004 43.345977 43.478218 43.604359 43.723443 43.836058 43.941358 44.039881 44.130896 44.214881 44.291219 44.360321 44.421684 44.475645 44.521814 44.560449 44.591273 44.614460 44.629842 44.637508 44.637402 44.629522 44.613923 44.590516 44.559466 44.520597 44.474185 44.419971 44.358343 44.288962 44.212330 44.128033 44.036686 43.937811 43.832136 43.719123 43.599615 43.473021 43.340297 43.200810 43.055627 42.904079 42.747339 42.584709 42.417467 42.244891 42.068354 41.887117 41.702640 41.514170 41.323244 41.129098 40.933332 40.735175 40.536277 40.335855 40.135599 39.934715 39.734913 39.535390 39.337858 39.141506 38.948033 38.756613 38.568923 38.384122 38.203842 38.027233 37.855871 37.688890 37.527802 37.371727 37.222099 37.078029 36.940862 36.809702 36.685801 36.568256 36.458219 36.354785 36.259005 36.169973 36.088634 36.014088 35.947174 35.887001 35.834301 35.788196 35.749313 35.716793 35.691156 35.671569 35.658448 35.650987 35.649505 35.653224 35.662370 35.676199 35.694845 35.717603 35.744519 35.774931 35.808802 35.845514 35.884950 35.926545 35.970103 36.015113 36.061309 36.108234 36.155556
36.533333 36.487863 36.442838 36.398628 36.355748 36.314492 36.275437 36.238796 36.205205 36.174790 36.148245 36.125605 36.107612 36.094207 36.086180 36.083371 36.086612 36.095639 36.111321 36.133286 36.162436 36.198287 36.241768 36.292281 36.350779 36.416544 36.490547 36.571952 36.661743 36.758964 36.864606 36.977595 37.098923 37.227401 37.364019 37.507474 37.658750 37.816436 37.981507 38.152451 38.330230 38.513239 38.702427 38.896108 39.095212 39.297987 39.505347 39.715484 39.929295 40.144934 40.363284 40.582475 40.803378 41.024117 41.245551 41.465819 41.685766 41.903565 42.120050 42.333441 42.544565 42.751705 42.955677 43.154842 43.350004 43.539616 43.724465 43.903106 44.076305 44.242727 44.403110 44.556236 44.702810 44.841731 44.973665 45.097634 45.214250 45.322661 45.423420 45.515799 45.600282 45.676265 45.744157 45.803476 45.854546 45.897009 45.931101 45.956581 45.973593 45.982018 45.981901 45.973244 45.955996 45.930276 45.895938 45.853221 45.801887 45.742293 45.674112 45.597825 45.513021 45.420302 45.319182 45.210387 45.093363 44.968960 44.836563 44.697148 44.550049 44.396363 44.235383 44.068328 43.894454 43.715098 43.529489 43.339072 43.143058 42.942992 42.738070 42.529929 42.317750 42.103250 41.885601 41.666583 41.445360 41.223760 41.000936 40.778750 40.556344 40.335592 40.115627 39.898318 39.682784 39.470873 39.261690 39.057046 38.856028 38.660394 38.469216 38.284184 38.104355 37.931339 37.764178 37.604392 37.451011 37.305454 37.166744 37.036193 36.912816 36.797817 36.690208 36.591078 36.499441 36.416268 36.340583 36.273239 36.213270 36.161414 36.116723 36.079818 36.049772 36.027095 36.010887 36.001546 35.998204 36.001154 36.009563 36.023622 36.042537 36.066401 36.094465 36.126729 36.162490 36.201661 36.243590 36.288104 36.334609 36.382851 36.432296 36.482614 36.533333
36.911111 36.862990 36.815317 36.768616 36.723254 36.679826 36.638612 36.600276 36.565007 36.533531 36.505939 36.483016 36.464753 36.451986 36.444601 36.443481 36.448403 36.460292 36.478808 36.504915 36.538155 36.579522 36.628435 36.685916 36.751257 36.825501 36.907812 36.999247 37.098841 37.207662 37.324614 37.450769 37.584902 37.728086 37.878968 38.038617 38.205558 38.380850 38.562904 38.752764 38.948736 39.151848 39.360311 39.575133 39.794444 40.019231 40.247559 40.480394 40.715748 40.954573 41.194845 41.437498 41.680497 41.924759 42.168254 42.411889 42.653656 42.894452 43.132315 43.368131 43.599999 43.828798 44.052705 44.272587 44.486717 44.695948 44.898658 45.095683 45.285516 45.468971 45.644665 45.813379 45.973861 46.126851 46.271231 46.407691 46.535247 46.654532 46.764695 46.866301 46.958633 47.042178 47.116353 47.181558 47.237341 47.284007 47.321237 47.349237 47.367814 47.377072 47.376946 47.367437 47.348605 47.320346 47.282850 47.235909 47.179841 47.114338 47.039851 46.955977 46.863298 46.761324 46.650771 46.531071 46.403073 46.266143 46.121262 45.967738 45.806687 45.637367 45.461028 45.276886 45.086322 44.888523 44.684990 44.474888 44.259835 44.038978 43.814041 43.584157 43.351146 43.114130 42.875007 42.632889 42.389740 42.144662 41.899662 41.653833 41.409206 41.164863 40.922841 40.682208 40.444988 40.210231 39.979931 39.753118 39.531737 39.314800 39.104183 38.898882 38.700691 38.508589 38.324274 38.146711 37.977493 37.815571 37.662428 37.517002 37.380658 37.252330 37.133257 37.022373 36.920790 36.827447 36.743329 36.667382 36.600465 36.541539 36.491337 36.448839 36.414654 36.387789 36.368732 36.356519 36.351523 36.352815 36.360654 36.374153 36.393461 36.417738 36.447029 36.480541 36.518223 36.559336 36.603733 36.650734 36.700103 36.751224 36.803773 36.857203 36.911111
37.288889 37.238361 37.188362 37.139338 37.091899 37.046398 37.003520 36.963523 36.927164 36.894598 36.866645 36.843356 36.825610 36.813346 36.807497 36.807885 36.815493 36.830019 36.852489 36.882477 36.921044 36.967632 37.023335 37.087459 37.161124 37.243498 37.335719 37.436816 37.547938 37.667976 37.798082 37.937009 38.085910 38.243397 38.410619 38.586054 38.770842 38.963331 39.164645 39.373014 39.589543 39.812353 40.042526 40.278088 40.520098 40.766499 41.018329 41.273464 41.532921 41.794530 42.059288 42.324999 42.592642 42.860016 43.128086 43.394666 43.660711 43.924073 44.185695 44.443491 44.698393 44.948393 45.194416 45.434547 45.669702 45.898074 46.120565 46.335493 46.543736 46.743745 46.936371 47.120204 47.296057 47.462663 47.620790 47.769315 47.908950 48.038716 48.159257 48.269741 48.370732 48.461541 48.542646 48.613497 48.674475 48.725171 48.765861 48.796273 48.816575 48.826631 48.826497 48.816170 48.795595 48.764904 48.723928 48.672937 48.611653 48.540482 48.459042 48.367880 48.266515 48.155636 48.034675 47.904463 47.764353 47.615323 47.456656 47.289476 47.113010 46.928526 46.735205 46.534457 46.325428 46.109666 45.886289 45.656978 45.420831 45.179650 44.932519 44.681350 44.425218 44.166129 43.903150 43.638365 43.370833 43.102698 42.833008 42.563947 42.294550 42.027020 41.760378 41.496822 41.235357 40.978154 40.724199 40.475620 40.231380 39.993544 39.761052 39.535888 39.316972 39.106191 38.902446 38.707515 38.520279 38.342402 38.172749 38.012856 37.861579 37.720322 37.587936 37.465689 37.352433 37.249296 37.155138 37.070948 36.995597 36.929938 36.872859 36.825080 36.785510 36.754738 36.731703 36.716864 36.709198 36.709037 36.715401 36.728502 36.747404 36.772207 36.802025 36.836849 36.875849 36.918910 36.965264 37.014698 37.066508 37.120387 37.175702 37.232055 37.288889
37.666667 37.614031 37.561925 37.510966 37.461589 37.414496 37.370021 37.328942 37.291491 37.258517 37.230139 37.207273 37.189922 37.179063 37.174575 37.177490 37.187560 37.205864 37.232021 37.267154 37.310742 37.363945 37.426098 37.498389 37.580010 37.672170 37.773911 37.886457 38.008699 38.141871 38.284711 38.438456 38.601693 38.775654 38.958780 39.152291 39.354487 39.566571 39.786709 40.016084 40.252736 40.497826 40.749282 41.008237 41.272521 41.543243 41.818153 42.098332 42.381469 42.668623 42.957443 43.248965 43.540823 43.834034 44.126239 44.418442 44.708312 44.996845 45.281762 45.564049 45.841505 46.115108 46.382752 46.645406 46.901076 47.150723 47.392479 47.627288 47.853422 48.071802 48.280847 48.481445 48.672169 48.853866 49.025262 49.187151 49.338417 49.479788 49.610303 49.730612 49.839909 49.938755 50.026495 50.103592 50.169538 50.224690 50.268685 50.301766 50.323715 50.334654 50.334510 50.323283 50.301041 50.267663 50.223362 50.167896 50.101622 50.024183 49.936085 49.836861 49.727165 49.606433 49.475470 49.333622 49.181848 49.019417 48.847444 48.665133 48.473754 48.272457 48.062669 47.843498 47.616523 47.380820 47.138116 46.887464 46.630729 46.366951 46.098120 45.823266 45.544492 45.260819 44.974448 44.684392 44.392928 44.099060 43.805119 43.510100 43.216365 42.922894 42.632057 42.342817 42.057529 41.775135 41.497951 41.224895 40.958225 40.696833 40.442898 40.195287 39.956081 39.724125 39.501387 39.286689 39.081878 38.885754 38.700032 38.523497 38.357725 38.201489 38.056220 37.920688 37.796175 37.681453 37.577655 37.483561 37.400155 37.326233 37.262633 37.208171 37.163540 37.127585 37.100861 37.082245 37.072156 37.069514 37.074604 37.086393 37.105042 37.129568 37.160013 37.195451 37.235809 37.280224 37.328513 37.379881 37.434042 37.490273 37.548190 37.607146 37.666667