# vtk DataFile Version 3.0
Steady-state temperature (Jacobi)
ASCII
DATASET STRUCTURED_POINTS
DIMENSIONS 181 181 1
ORIGIN 0.0 0.0 0.0
SPACING 0.05 0.05 1.0
POINT_DATA 32761
SCALARS Temperature float 1
LOOKUP_TABLE default
32.000000 32.000000 32.000000 32.000000 32.000000 32.000000 32.000000 32.000000
32.000000 32.000000 32.000000 32.000000 32.000000 32.000000 32.000000 32.000000
32.000000 32.000000 32.000000 32.000000 32.000000 32.000000 32.000000 32.000000
32.000000 32.000000 32.000000 32.000000 32.000000 32.000000 32.000000 32.000000
32.000000 32.000000 32.000000 32.000000 32.000000 32.000000 32.000000 32.000000
32.000000 32.000000 32.000000 32.000000 32.000000 32.000000 32.000000 32.000000
32.000000 32.000000 32.000000 32.000000 32.000000 32.000000 32.000000 32.000000
32.000000 32.000000 32.000000 32.000000 32.000000 32.000000 32.000000 32.000000
32.000000 32.000000 32.000000 32.000000 32.000000 32.000000 32.000000 32.000000
32.000000 32.000000 32.000000 32.000000 32.000000 32.000000 32.000000 32.000000
32.000000 32.000000 32.000000 32.000000 32.000000 32.000000 32.000000 32.000000
32.000000 32.000000 32.000000 32.000000 32.000000 32.000000 32.000000 32.000000
32.000000 32.000000 32.000000 32.000000 32.000000 32.000000 32.000000 32.000000
32.000000 32.000000 32.000000 32.000000 32.000000 32.000000 32.000000 32.000000
32.000000 32.000000 32.000000 32.000000 32.000000 32.000000 32.000000 32.000000
32.000000 32.000000 32.000000 32.000000 32.000000 32.000000 32.000000 32.000000
32.000000 32.000000 32.000000 32.000000 32.000000 32.000000 32.000000 32.000000
32.000000 32.000000 32.000000 32.000000 32.000000 32.000000 32.000000 32.000000
32.000000 32.000000 32.000000 32.000000 32.000000 32.000000 32.000000 32.000000
32.000000 32.000000 32.000000 32.000000 32.000000 32.000000 32.000000 32.000000
32.000000 32.000000 32.000000 32.000000 32.000000 32.000000 32.000000 32.000000
32.000000 32.000000 32.000000 32.000000 32.000000 32.000000 32.000000 32.000000
32.000000 32.000000 32.000000 32.000000 32.000000
32.377778 32.364296 32.350848 32.337469 32.324188 32.311044 32.298062 32.285280
32.272723 32.260427 32.248411 32.236713 32.225347 32.214350 32.203730 32.193524
32.183733 32.174396 32.165505 32.157099 32.149165 32.141740 32.134803 32.128394
32.122483 32.117111 32.112240 32.107913 32.104082 32.100794 32.097993 32.095726
32.093930 32.092656 32.091830 32.091509 32.091608 32.092189 32.093160 32.094585
32.096363 32.098565 32.101080 32.103984 32.107160 32.110686 32.114439 32.118501
32.122745 32.127255 32.131899 32.136766 32.141720 32.146852 32.152024 32.157331
32.162633 32.168026 32.173372 32.178768 32.184078 32.189398 32.194597 32.199771
32.204792 32.209755 32.214540 32.219238 32.223736 32.228122 32.232291 32.236327
32.240134 32.243790 32.247209 32.250464 32.253476 32.256313 32.258906 32.261314
32.263480 32.265454 32.267189 32.268724 32.270026 32.271122 32.271989 32.272647
32.273080 32.273299 32.273299 32.273079 32.272645 32.271986 32.271117 32.270019
32.268716 32.267179 32.265442 32.263466 32.261297 32.258885 32.256288 32.253447
32.250430 32.247169 32.243743 32.240079 32.236263 32.232217 32.228036 32.223637
32.219124 32.214409 32.209604 32.204619 32.199572 32.194371 32.189140 32.183784
32.178434 32.172995 32.167599 32.162152 32.156790 32.151417 32.146171 32.140959
32.135917 32.130954 32.126205 32.121581 32.117214 32.113017 32.109120 32.105438
32.102095 32.099013 32.096306 32.093901 32.091906 32.090252 32.089040 32.088204
32.087837 32.087878 32.088411 32.089379 32.090859 32.092798 32.095261 32.098202
32.101676 32.105639 32.110140 32.115136 32.120668 32.126695 32.133249 32.140293
32.147848 32.155880 32.164402 32.173379 32.182819 32.192687 32.202983 32.213671
32.224747 32.236173 32.247939 32.260009 32.272364 32.284970 32.297804 32.310830
32.324022 32.337344 32.350767 32.364255 32.377778
32.755556 32.728597 32.701707 32.674951 32.648399 32.622110 32.596158 32.570594
32.545494 32.520900 32.496887 32.473488 32.450778 32.428780 32.407567 32.387150
32.367602 32.348920 32.331179 32.314359 32.298537 32.283678 32.269860 32.257031
32.245274 32.234518 32.224850 32.216183 32.208606 32.202016 32.196508 32.191960
32.188474 32.185909 32.184376 32.183715 32.184045 32.185188 32.187272 32.190101
32.193812 32.198193 32.203389 32.209174 32.215700 32.222728 32.230417 32.238516
32.247194 32.256187 32.265672 32.275377 32.285485 32.295719 32.306266 32.316847
32.327653 32.338407 32.349299 32.360057 32.370872 32.381479 32.392066 32.402378
32.412603 32.422494 32.432236 32.441596 32.450754 32.459490 32.467978 32.476016
32.483766 32.491047 32.498007 32.504486 32.510619 32.516264 32.521544 32.526336
32.530746 32.534673 32.538205 32.541260 32.543909 32.546090 32.547856 32.549164
32.550046 32.550481 32.550480 32.550043 32.549159 32.547848 32.546080 32.543896
32.541243 32.538184 32.534648 32.530717 32.526301 32.521503 32.516215 32.510561
32.504417 32.497927 32.490953 32.483657 32.475889 32.467830 32.459319 32.450556
32.441368 32.431973 32.422192 32.412256 32.401981 32.391613 32.380962 32.370285
32.359391 32.348544 32.337554 32.326692 32.315766 32.305051 32.294358 32.283963
32.273680 32.263782 32.254088 32.244866 32.235941 32.227574 32.219595 32.212257
32.205396 32.199254 32.193676 32.188887 32.184744 32.181457 32.178890 32.177237
32.176371 32.176471 32.177419 32.179373 32.182226 32.186119 32.190950 32.196845
32.203709 32.211649 32.220576 32.230581 32.241579 32.253644 32.266697 32.280793
32.295857 32.311928 32.328932 32.346894 32.365741 32.385482 32.406046 32.427427
32.449555 32.472412 32.495926 32.520067 32.544764 32.569976 32.595633 32.621684
32.648059 32.674702 32.701541 32.728515 32.755556
33.133333 33.092908 33.052584 33.012465 32.972644 32.933231 32.894309 32.855990
32.818344 32.781485 32.745469 32.710410 32.676350 32.643400 32.611585 32.581017
32.551700 32.523747 32.497140 32.471994 32.448267 32.426076 32.405357 32.386229
32.368603 32.352603 32.338112 32.325264 32.313914 32.304202 32.295958 32.289331
32.284123 32.280494 32.278219 32.277469 32.277991 32.279971 32.283127 32.287658
32.293259 32.300140 32.307972 32.316978 32.326807 32.337695 32.349271 32.361782
32.374841 32.388706 32.402976 32.417917 32.433120 32.448860 32.464721 32.480983
32.497229 32.513746 32.530119 32.546636 32.562889 32.579167 32.595074 32.610897
32.626254 32.641428 32.656056 32.670413 32.684159 32.697558 32.710296 32.722622
32.734249 32.745413 32.755852 32.765786 32.774982 32.783637 32.791552 32.798899
32.805508 32.811528 32.816819 32.821503 32.825472 32.828816 32.831461 32.833466
32.834787 32.835455 32.835453 32.834783 32.833458 32.831449 32.828801 32.825452
32.821479 32.816789 32.811491 32.805464 32.798846 32.791490 32.783564 32.774895
32.765683 32.755732 32.745272 32.734085 32.722431 32.710074 32.697302 32.683862
32.670070 32.655661 32.640974 32.625734 32.610301 32.594394 32.578392 32.562007
32.545636 32.528987 32.512467 32.495787 32.479360 32.462898 32.446819 32.430838
32.415371 32.400140 32.385556 32.371349 32.357919 32.345006 32.332996 32.321642
32.311311 32.301769 32.293364 32.285873 32.279623 32.274405 32.270523 32.267779
32.266453 32.266362 32.267758 32.270472 32.274730 32.280374 32.287603 32.296272
32.306554 32.318311 32.331690 32.346564 32.363052 32.381035 32.400607 32.421652
32.444242 32.468265 32.493766 32.520639 32.548905 32.578459 32.609301 32.641325
32.674514 32.708760 32.744027 32.780207 32.817248 32.855042 32.893521 32.932579
32.972135 33.012083 33.052334 33.092783 33.133333
33.511111 33.457233 33.403492 33.350018 33.296955 33.244421 33.192564 33.141486
33.091339 33.042209 32.994247 32.947518 32.902175 32.858261 32.815928 32.775192
32.736207 32.698962 32.663610 32.630113 32.598624 32.569074 32.541622 32.516163
32.492862 32.471581 32.452493 32.435423 32.420555 32.407678 32.396987 32.388235
32.381628 32.376885 32.374227 32.373333 32.374443 32.377200 32.381861 32.388032
32.395988 32.405303 32.416268 32.428426 32.442086 32.456762 32.472778 32.489624
32.507640 32.526296 32.545943 32.566036 32.586939 32.608095 32.629879 32.651729
32.674026 32.696209 32.718665 32.740840 32.763121 32.784968 32.806766 32.827994
32.849032 32.869382 32.889416 32.908663 32.927485 32.945442 32.962879 32.979391
32.995306 33.010256 33.024543 33.037840 33.050425 33.062007 33.072837 33.082665
33.091708 33.099759 33.106998 33.113261 33.118690 33.123161 33.126779 33.129460
33.131267 33.132159 33.132157 33.131261 33.129449 33.126763 33.123141 33.118664
33.113228 33.106958 33.099710 33.091649 33.082595 33.072754 33.061909 33.050309
33.037704 33.024383 33.010068 32.995088 32.979137 32.962584 32.945099 32.927089
32.908206 32.888890 32.868777 32.848338 32.827200 32.805859 32.783934 32.761946
32.739507 32.717155 32.694504 32.672103 32.649565 32.627450 32.605373 32.583896
32.562640 32.542163 32.522096 32.502984 32.484473 32.467091 32.450497 32.435199
32.420871 32.407998 32.396268 32.386140 32.377319 32.370232 32.364603 32.360827
32.358645 32.358417 32.359903 32.363427 32.368766 32.376208 32.385547 32.397034
32.410477 32.426091 32.443697 32.463476 32.485260 32.509193 32.535116 32.563139
32.593112 32.625111 32.658989 32.694794 32.732378 32.771761 32.812799 32.855480
32.899661 32.945306 32.992271 33.040497 33.089838 33.140216 33.191484 33.243546
33.296258 33.349506 33.403150 33.457064 33.511111
33.888889 33.821578 33.754435 33.687636 33.621338 33.555723 33.490930 33.427148
33.364494 33.303160 33.243240 33.184925 33.128284 33.073508 33.020635 32.969856
32.921177 32.874789 32.830662 32.788991 32.749705 32.713003 32.678777 32.647229
32.618208 32.591927 32.568191 32.547222 32.528780 32.513104 32.499905 32.489437
32.481367 32.475967 32.472855 32.472325 32.473947 32.478037 32.484121 32.492534
32.502760 32.515156 32.529164 32.545164 32.562559 32.581749 32.602104 32.624045
32.646913 32.671144 32.696058 32.722107 32.748593 32.775982 32.803567 32.831824
32.860043 32.888708 32.917114 32.945749 32.973921 33.002118 33.029667 33.057052
33.083628 33.109871 33.135167 33.159981 33.183735 33.206878 33.228875 33.250152
33.270220 33.289478 33.307486 33.324612 33.340467 33.355383 33.369021 33.381676
33.393060 33.403426 33.412537 33.420599 33.427430 33.433186 33.437737 33.441188
33.443461 33.444610 33.444607 33.443453 33.441175 33.437718 33.433160 33.427397
33.420558 33.412487 33.403365 33.392987 33.381588 33.368917 33.355260 33.340322
33.324441 33.307286 33.289244 33.269946 33.249834 33.228506 33.206450 33.183240
33.159409 33.134509 33.109115 33.082761 33.056059 33.028533 33.000826 32.972452
32.944083 32.915227 32.886576 32.857639 32.829119 32.800530 32.772579 32.744788
32.717862 32.691332 32.665894 32.641093 32.617606 32.594996 32.573918 32.553950
32.535720 32.518826 32.503863 32.490449 32.479143 32.469584 32.462291 32.456926
32.453965 32.453093 32.454740 32.458615 32.465102 32.473931 32.485440 32.499379
32.516039 32.535188 32.557074 32.581477 32.608602 32.638241 32.670556 32.705350
32.742741 32.782540 32.824826 32.869413 32.916342 32.965431 33.016684 33.069920
33.125110 33.182071 33.240746 33.300951 33.362599 33.425508 33.489568 33.554594
33.620458 33.686976 33.754003 33.821361 33.888889
34.266667 34.185945 34.105431 34.025320 33.945830 33.867139 33.789470 33.712979
33.637894 33.564345 33.492562 33.422644 33.354822 33.289160 33.225890 33.165038
33.106836 33.051270 32.998573 32.948685 32.901844 32.857943 32.817226 32.779535
32.745125 32.713783 32.685777 32.660842 32.639260 32.620709 32.605491 32.593229
32.584243 32.578099 32.575143 32.574883 32.577688 32.583011 32.591249 32.601799
32.615084 32.630450 32.648345 32.668068 32.690092 32.713673 32.739307 32.766212
32.794906 32.824576 32.855761 32.887622 32.920715 32.954186 32.988605 33.023111
33.058285 33.093267 33.128644 33.163569 33.198631 33.233001 33.267268 33.300632
33.333673 33.365627 33.397064 33.427261 33.456771 33.484921 33.512238 33.538104
33.563018 33.586418 33.608770 33.629569 33.649243 33.667350 33.684270 33.699626
33.713747 33.726320 33.737620 33.747396 33.755867 33.762845 33.768488 33.772671
33.775490 33.776881 33.776878 33.775480 33.772655 33.768465 33.762814 33.755828
33.747347 33.737560 33.726247 33.713659 33.699521 33.684145 33.667202 33.649069
33.629365 33.608530 33.586138 33.562691 33.537723 33.511795 33.484407 33.456177
33.426576 33.396274 33.364720 33.332632 33.299441 33.265908 33.231451 33.196868
33.161569 33.126380 33.090708 33.055400 33.019865 32.984961 32.950103 32.916150
32.882528 32.850091 32.818277 32.787922 32.758485 32.730777 32.704276 32.679762
32.656735 32.635939 32.616898 32.600311 32.585729 32.573805 32.564116 32.557263
32.552851 32.551429 32.552628 32.556941 32.564027 32.574324 32.587513 32.603978
32.623423 32.646175 32.671959 32.701049 32.733184 32.768586 32.807008 32.848621
32.893188 32.940830 32.991318 33.044724 33.100827 33.159652 33.220979 33.284793
33.350875 33.419172 33.489462 33.561658 33.635538 33.710985 33.787776 33.865766
33.944736 34.024518 34.104894 34.185681 34.266667
34.644444 34.550344 34.456480 34.363103 34.270432 34.178725 34.088180 33.999061
33.911537 33.825876 33.742213 33.660819 33.581790 33.505399 33.431700 33.360965
33.293201 33.228683 33.167368 33.109535 33.055084 33.004302 32.957032 32.913570
32.873698 32.837725 32.805371 32.776962 32.752152 32.731288 32.713957 32.700529
32.690525 32.684341 32.681430 32.682217 32.686087 32.693495 32.703761 32.717371
32.733582 32.752910 32.774552 32.799055 32.825562 32.854647 32.885405 32.918437
32.952796 32.989108 33.026392 33.065297 33.104818 33.145620 33.186686 33.228696
33.270629 33.313174 33.355319 33.397759 33.439500 33.481238 33.522007 33.562498
33.601784 33.640544 33.677900 33.714512 33.749557 33.783672 33.816093 33.847429
33.876981 33.905320 33.931816 33.956998 33.980308 34.002224 34.022262 34.040843
34.057559 34.072769 34.086140 34.097966 34.107986 34.116426 34.123099 34.128158
34.131491 34.133174 34.133170 34.131480 34.128139 34.123072 34.116390 34.107940
34.097908 34.086070 34.072684 34.057456 34.040721 34.022116 34.002052 33.980105
33.956760 33.931536 33.904992 33.876599 33.846984 33.815576 33.783073 33.748863
33.713712 33.676978 33.639485 33.600570 33.561108 33.520420 33.479430 33.437444
33.395426 33.352677 33.310189 33.267263 33.224909 33.182435 33.140857 33.099492
33.059355 33.019777 32.981758 32.944648 32.909422 32.875453 32.843684 32.813510
32.785834 32.760079 32.737099 32.716347 32.698623 32.683410 32.671450 32.662258
32.656514 32.653764 32.654625 32.658674 32.666461 32.677595 32.692560 32.710991
32.733308 32.759170 32.788933 32.822277 32.859495 32.900287 32.944881 32.992993
33.044792 33.100005 33.158744 33.220743 33.286059 33.354430 33.425864 33.500101
33.577102 33.656605 33.738530 33.822615 33.908739 33.996642 34.086169 34.177060
34.269133 34.362129 34.455843 34.550024 34.644444
35.022222 34.914774 34.807606 34.700980 34.595190 34.490475 34.387137 34.285385
34.185528 34.087740 33.992332 33.899437 33.809369 33.722215 33.638290 33.557629
33.480548 33.407028 33.337389 33.271548 33.209835 33.152101 33.098685 33.049371
33.004511 32.963818 32.927661 32.895679 32.868264 32.844977 32.826236 32.811525
32.801291 32.794939 32.792949 32.794646 32.800543 32.809891 32.823236 32.839752
32.860023 32.883150 32.909752 32.938865 32.971138 33.005548 33.042778 33.081749
33.123173 33.165929 33.210756 33.256497 33.303915 33.351831 33.401025 33.450311
33.500482 33.550354 33.600728 33.650439 33.700289 33.749141 33.797796 33.845155
33.892011 33.937315 33.981844 34.024608 34.066362 34.106182 34.144792 34.181345
34.216523 34.249558 34.281088 34.310424 34.338152 34.363669 34.387498 34.409121
34.428993 34.446686 34.462578 34.476328 34.488236 34.498046 34.505975 34.511854
34.515814 34.517770 34.517766 34.515802 34.511833 34.505945 34.498005 34.488183
34.476262 34.462498 34.446588 34.428876 34.408981 34.387331 34.363473 34.337921
34.310152 34.280768 34.249184 34.216086 34.180836 34.144202 34.105497 34.065569
34.023694 33.980791 33.936105 33.890624 33.843567 33.795983 33.747075 33.697940
33.647772 33.597709 33.546942 33.496635 33.445984 33.396166 33.346387 33.297828
33.249706 33.203195 33.157530 33.113861 33.071447 33.031405 32.993019 32.957365
32.923755 32.893211 32.865081 32.840326 32.818326 32.799977 32.784697 32.773311
32.765271 32.761330 32.760978 32.764889 32.772590 32.784680 32.800717 32.821223
32.845789 32.874862 32.908057 32.945747 32.987574 33.033836 33.084194 33.138878
33.197561 33.260408 33.327104 33.397747 33.472031 33.549993 33.631331 33.716026
33.803778 33.894516 33.987939 34.083932 34.182191 34.282560 34.384738 34.488531
34.593641 34.699843 34.806846 34.914400 35.022222
35.400000 35.279248 35.158803 35.038991 34.920096 34.802456 34.686325 34.572051
34.459849 34.350073 34.242896 34.138675 34.037533 33.939830 33.845634 33.755306
33.668853 33.586641 33.508611 33.435135 33.366081 33.301832 33.242182 33.187527
33.137579 33.092755 33.052684 33.017805 32.987662 32.962721 32.942436 32.927307
32.916700 32.911145 32.909921 32.913595 32.921356 32.933811 32.950060 32.970750
32.994896 33.023186 33.054553 33.089725 33.127562 33.168826 33.212313 33.258819
33.307084 33.357936 33.410068 33.464337 33.519403 33.576147 33.633211 33.691492
33.749631 33.808537 33.866860 33.925518 33.983188 34.040786 34.097028 34.152826
34.206947 34.260289 34.311684 34.362006 34.410162 34.456995 34.501494 34.544462
34.584976 34.623792 34.660078 34.694534 34.726425 34.756383 34.783772 34.809150
34.831980 34.852739 34.870988 34.887117 34.900785 34.912290 34.921390 34.928284
34.932828 34.935121 34.935117 34.932813 34.928260 34.921355 34.912244 34.900726
34.887043 34.870897 34.852629 34.831848 34.808993 34.783585 34.756162 34.726164
34.694227 34.659718 34.623370 34.584484 34.543890 34.500829 34.456225 34.409271
34.360978 34.310500 34.258928 34.205386 34.151039 34.094988 34.038461 33.980544
33.922519 33.863464 33.804699 33.745304 33.686624 33.627745 33.570022 33.512556
33.456697 33.401563 33.348486 33.296608 33.247229 33.199518 33.154731 33.112066
33.072726 33.035945 33.002858 32.972737 32.946645 32.923894 32.905468 32.890719
32.880549 32.874350 32.872939 32.875748 32.883507 32.895687 32.912929 32.934743
32.961681 32.993286 33.030026 33.071472 33.118008 33.169231 33.225442 33.286259
33.351906 33.422016 33.496736 33.575712 33.659021 33.746314 33.837602 33.932542
34.031082 34.132879 34.237829 34.345588 34.456000 34.568724 34.683559 34.800167
34.918309 35.037652 35.157927 35.278807 35.400000
35.777778 35.643762 35.510100 35.377125 35.245208 35.114651 34.985838 34.859032
34.734628 34.612843 34.494076 34.378494 34.266500 34.158201 34.054004 33.953950
33.858451 33.767477 33.681445 33.600248 33.524315 33.453455 33.388111 33.328005
33.273598 33.224520 33.181259 33.143348 33.111302 33.084558 33.063665 33.047957
33.038022 33.033092 33.033795 33.039263 33.050165 33.065532 33.086078 33.110736
33.140262 33.173496 33.211239 33.252242 33.297347 33.345226 33.396760 33.450550
33.507515 33.566199 33.627550 33.690069 33.754733 33.820015 33.886913 33.953887
34.021954 34.089577 34.157786 34.225064 34.292444 34.358449 34.424109 34.487998
34.551136 34.612163 34.672080 34.729606 34.785712 34.839207 34.891023 34.940065
34.987215 35.031484 35.073694 35.112962 35.150042 35.184161 35.215993 35.244878
35.271402 35.295016 35.316212 35.334551 35.350423 35.363500 35.374064 35.381899
35.387173 35.389779 35.389774 35.387158 35.381872 35.374026 35.363448 35.350357
35.334469 35.316111 35.294894 35.271256 35.244703 35.215785 35.183915 35.149752
35.112621 35.073294 35.031016 34.986669 34.939429 34.890284 34.838351 34.784722
34.728463 34.670764 34.610651 34.549401 34.486013 34.421842 34.355866 34.289507
34.221731 34.154012 34.085313 34.017146 33.948477 33.880839 33.813210 33.747125
33.681580 33.618099 33.555699 33.495875 33.437673 33.382543 33.329565 33.280130
33.233355 33.190563 33.150910 33.115641 33.083953 33.057006 33.034041 33.016125
33.002545 32.994273 32.990641 32.992521 32.999290 33.011722 33.029236 33.052505
33.080989 33.115264 33.154824 33.200149 33.250765 33.307059 33.368582 33.435631
33.507780 33.585237 33.667593 33.754974 33.846982 33.943666 34.044635 34.149868
34.258975 34.371870 34.488166 34.607717 34.730138 34.855231 34.982611 35.112035
35.243124 35.375596 35.509079 35.643259 35.777778
36.155556 36.008332 35.861489 35.715431 35.570508 35.427142 35.285646 35.146451
35.009827 34.876213 34.745824 34.619107 34.496214 34.377596 34.263336 34.153893
34.049272 33.949939 33.855816 33.767379 33.684463 33.607557 33.536400 33.471502
33.412502 33.359935 33.313335 33.273267 33.239156 33.211604 33.189924 33.174757
33.165303 33.162248 33.164675 33.173316 33.187143 33.206934 33.231548 33.261813
33.296478 33.336420 33.380285 33.428996 33.481104 33.537576 33.596879 33.660019
33.725393 33.794043 33.864308 33.937263 34.011205 34.087239 34.163636 34.241523
34.319168 34.397713 34.475442 34.553504 34.630218 34.706733 34.781420 34.855423
34.927178 34.997814 35.065850 35.132387 35.196041 35.257876 35.316612 35.373266
35.426670 35.477780 35.525550 35.570863 35.612795 35.652148 35.688120 35.721422
35.751377 35.778592 35.802516 35.823645 35.841552 35.856616 35.868531 35.877554
35.883502 35.886503 35.886497 35.883484 35.877524 35.868489 35.856559 35.841480
35.823555 35.802406 35.778458 35.751216 35.721230 35.687892 35.651878 35.612477
35.570488 35.525110 35.477266 35.426069 35.372566 35.315800 35.256934 35.194952
35.131130 35.064402 34.996150 34.925270 34.853240 34.778927 34.703892 34.626987
34.549838 34.471291 34.393023 34.313880 34.235573 34.156955 34.079753 34.002836
33.927926 33.853912 33.782494 33.712589 33.645854 33.581241 33.520348 33.462165
33.408220 33.357542 33.311576 33.269395 33.232352 33.199569 33.172293 33.149699
33.132927 33.121201 33.115552 33.115254 33.121225 33.132788 33.150751 33.174481
33.204675 33.240743 33.283273 33.331712 33.386544 33.447248 33.514203 33.586918
33.665674 33.749998 33.840080 33.935463 34.036247 34.141986 34.252699 34.367947
34.487671 34.611437 34.739117 34.870279 35.004733 35.142050 35.281985 35.424114
35.568145 35.713660 35.860330 36.007749 36.155556
36.533333 36.372952 36.213004 36.053890 35.896067 35.739900 35.585860 35.434265
35.285601 35.140130 34.998345 34.860447 34.726934 34.597935 34.473956 34.355045
34.241716 34.133929 34.032209 33.936421 33.847106 33.764027 33.687743 33.617910
33.555114 33.498897 33.449875 33.407473 33.372345 33.343791 33.322509 33.307674
33.300029 33.298622 33.304248 33.315824 33.334198 33.358160 33.388611 33.424217
33.465931 33.512302 33.564331 33.620458 33.681733 33.746492 33.815834 33.888005
33.964145 34.042428 34.124031 34.207072 34.292761 34.379179 34.467563 34.555979
34.645683 34.734749 34.824446 34.912875 35.001312 35.087906 35.173929 35.257601
35.340181 35.419972 35.498212 35.573305 35.646454 35.716176 35.783628 35.847451
35.908741 35.966269 36.021060 36.072021 36.120090 36.164312 36.205528 36.242924
36.277231 36.307772 36.335162 36.358860 36.379356 36.396244 36.409879 36.419992
36.426797 36.430161 36.430155 36.426778 36.419960 36.409833 36.396183 36.379277
36.358762 36.335041 36.307626 36.277055 36.242714 36.205279 36.164017 36.119742
36.071612 36.020581 35.965708 35.908086 35.846688 35.782742 35.715149 35.645266
35.571934 35.496633 35.418157 35.338099 35.255219 35.171210 35.084806 34.997787
34.908876 34.819918 34.729632 34.639914 34.549488 34.460275 34.371014 34.283631
34.196886 34.112691 34.029829 33.950177 33.872552 33.798774 33.727698 33.661072
33.597793 33.539521 33.485199 33.436386 33.392079 33.353724 33.320371 33.293350
33.271764 33.256822 33.247683 33.245430 33.249276 33.260180 33.277407 33.301792
33.332648 33.370687 33.415268 33.466985 33.525234 33.590493 33.662195 33.740704
33.825481 33.916786 34.014099 34.117580 34.226725 34.341601 34.461715 34.587044
34.717104 34.851791 34.990626 35.133434 35.279739 35.429300 35.581647 35.736484
35.893347 36.051893 36.211670 36.372295 36.533333
36.911111 36.737642 36.564630 36.392561 36.221856 36.053023 35.886435 35.722618
35.561890 35.404786 35.251563 35.102764 34.958570 34.819536 34.685757 34.557798
34.435662 34.319925 34.210492 34.107952 34.012103 33.923556 33.841991 33.768047
33.701282 33.642367 33.590733 33.547089 33.510733 33.482419 33.461307 33.448201
33.442120 33.443923 33.452485 33.468720 33.491364 33.521386 33.557381 33.600378
33.648835 33.703836 33.763710 33.829596 33.899704 33.975222 34.054253 34.138034
34.224576 34.315157 34.407718 34.503571 34.600607 34.700172 34.800124 34.901835
35.003161 35.105490 35.206699 35.308186 35.407872 35.507157 35.604027 35.699877
35.792778 35.884107 35.972041 36.057926 36.140059 36.219743 36.295407 36.368297
36.436984 36.502641 36.563989 36.622115 36.675889 36.726300 36.772373 36.814980
36.853300 36.888083 36.918658 36.945638 36.968505 36.987727 37.002934 37.014442
37.022030 37.025858 37.025851 37.022010 37.014407 37.002884 36.987660 36.968420
36.945532 36.918527 36.887924 36.853110 36.814752 36.772103 36.725981 36.675513
36.621672 36.563470 36.502033 36.436274 36.367471 36.294447 36.218630 36.138772
36.056441 35.970331 35.882141 35.790523 35.697296 35.601080 35.503799 35.404054
35.303854 35.201793 35.099948 34.996911 34.894803 34.792228 34.691326 34.590717
34.492537 34.395432 34.301508 34.209444 34.121294 34.035772 33.954862 33.877322
33.805043 33.736832 33.674474 33.616828 33.565562 33.519588 33.480448 33.447112
33.420989 33.401108 33.388739 33.382973 33.384939 33.393786 33.410506 33.434303
33.466032 33.504949 33.551775 33.605814 33.667655 33.736645 33.813248 33.896845
33.987781 34.085466 34.190129 34.301203 34.418812 34.542403 34.672001 34.807065
34.947527 35.092853 35.242893 35.397120 35.555307 35.716933 35.881706 36.049112
36.218803 36.390275 36.563133 36.736890 36.911111
37.288889 37.102392 36.916409 36.731418 36.547960 36.366468 36.187504 36.011447
35.838876 35.670102 35.505718 35.345960 35.191430 35.042280 34.899123 34.762014
34.631580 34.507772 34.391233 34.281800 34.180137 34.085958 33.999957 33.921717
33.851964 33.790146 33.737029 33.691917 33.655623 33.627302 33.607819 33.596177
33.593296 33.598023 33.611338 33.631931 33.660843 33.696607 33.740327 33.790380
33.847934 33.911217 33.981454 34.056736 34.138343 34.224240 34.315759 34.410754
34.510603 34.613070 34.719574 34.827809 34.939230 35.051489 35.166069 35.280602
35.396598 35.511696 35.627422 35.741451 35.855317 35.966756 36.077301 36.184776
36.290698 36.393000 36.493175 36.589281 36.682772 36.771849 36.857910 36.939311
37.017379 37.090631 37.160310 37.225097 37.286135 37.342274 37.394538 37.441948
37.485396 37.524072 37.558723 37.588705 37.614612 37.635961 37.653186 37.665964
37.674558 37.678807 37.678800 37.674536 37.665927 37.653132 37.635890 37.614520
37.588590 37.558583 37.523901 37.485192 37.441703 37.394248 37.341930 37.285729
37.224620 37.159750 37.089976 37.016615 36.938421 36.856877 36.770651 36.681386
36.587682 36.491333 36.390883 36.288270 36.181997 36.074128 35.963141 35.851205
35.736786 35.622139 35.505727 35.389868 35.273030 35.157566 35.041962 34.928579
34.815925 34.706344 34.598371 34.494308 34.392726 34.295857 34.202315 34.114240
34.030294 33.952508 33.879597 33.813465 33.752886 33.699627 33.652520 33.613189
33.580529 33.556011 33.538595 33.529600 33.528050 33.535107 33.549860 33.573318
33.604628 33.644652 33.692590 33.749159 33.813610 33.886517 33.967176 34.056027
34.152400 34.256609 34.368014 34.486806 34.612368 34.744779 34.883439 35.028322
35.178839 35.334870 35.495834 35.661526 35.831372 36.005089 36.182112 36.362094
36.544478 36.728861 36.914703 37.101551 37.288889
37.666667 37.467225 37.268321 37.070528 36.874337 36.680350 36.489005 36.300923
36.116477 35.936306 35.760706 35.590329 35.425384 35.266537 35.113900 34.968152
34.829295 34.698029 34.574236 34.458637 34.350988 34.252037 34.161403 34.079870
34.006910 33.943349 33.888507 33.843257 33.806760 33.779944 33.761803 33.753326
33.753337 33.762888 33.780629 33.807679 33.842515 33.886321 33.937403 33.997010
34.063281 34.137529 34.217734 34.305269 34.397966 34.497254 34.600834 34.710185
34.822897 34.940495 35.060479 35.184414 35.309736 35.438047 35.566747 35.697465
35.827598 35.958797 36.088482 36.218318 36.345782 36.472541 36.596158 36.718293
36.836615 36.952768 37.064552 37.173576 37.277791 37.378756 37.474588 37.566779
37.653619 37.736518 37.813947 37.887214 37.954976 38.018420 38.076389 38.129937
38.178089 38.221749 38.260124 38.293956 38.322631 38.346714 38.365770 38.380182
38.389687 38.394480 38.394472 38.389664 38.380142 38.365713 38.346637 38.322532
38.293833 38.259974 38.221566 38.177870 38.129675 38.076078 38.018052 37.954541
37.886703 37.813348 37.735817 37.652801 37.565826 37.473481 37.377473 37.276306
37.171862 37.062579 36.950500 36.834014 36.715316 36.592759 36.468668 36.341377
36.213319 36.082822 35.952401 35.820387 35.689352 35.557637 35.427840 35.298324
35.171682 35.046304 34.924747 34.805438 34.690870 34.579510 34.473763 34.372141
34.276939 34.186722 34.103651 34.026351 33.956838 33.893796 33.839086 33.791457
33.752606 33.721351 33.699217 33.685093 33.680335 33.683899 33.696973 33.718579
33.749738 33.789536 33.838832 33.896769 33.964051 34.039871 34.124784 34.218028
34.320014 34.430017 34.548314 34.674210 34.807853 34.948574 35.096401 35.250682
35.411340 35.577732 35.749684 35.926565 36.108111 36.293701 36.482995 36.675382
36.870457 37.067624 37.266419 37.466270 37.666667
38.044444 37.832130 37.620415 37.409856 37.201088 36.994612 36.791090 36.590961
36.394906 36.203287 36.016806 35.835734 35.660789 35.492145 35.330534 35.176019
35.029353 34.890474 34.760160 34.638216 34.525448 34.421519 34.327271 34.242211
34.167227 34.101664 34.046459 34.000787 33.965642 33.940022 33.924983 33.919339
33.924214 33.938235 33.962594 33.995727 34.038898 34.090353 34.151427 34.220177
34.298007 34.382794 34.476006 34.575350 34.682356 34.794575 34.913591 35.036822
35.165901 35.298134 35.435198 35.574315 35.717199 35.861020 36.007524 36.153858
36.301796 36.448497 36.595754 36.740771 36.885352 37.026780 37.166858 37.302978
37.436930 37.566242 37.692676 37.813916 37.931685 38.043840 38.152041 38.254335
38.352303 38.444186 38.531468 38.612591 38.688918 38.759095 38.824348 38.883524