<?xml version="1.0"?>
<VTKFile type="ImageData" version="0.1" byte_order="LittleEndian">
  <ImageData WholeExtent="0 180 0 180 0 0" Origin="0.0 0.0 0.0" Spacing="0.05 0.05 1">
    <Piece Extent="0 180 0 180 0 0">
      <PointData Scalars="Temperature">
        <DataArray type="Float32" Name="Temperature" format="ascii">
32.000000 32.000000 32.000000 32.000000 32.000000 32.000000 32.000000 32.000000 32.000000 32.000000 32.000000 32.000000 32.000000 32.000000 32.000000 32.000000 32.000000 32.000000 32.000000 32.000000 32.000000 32.000000 32.000000 32.000000 32.000000 32.000000 32.000000 32.000000 32.000000 32.000000 32.000000 32.000000 32.000000 32.000000 32.000000 32.000000 32.000000 32.000000 32.000000 32.000000 32.000000 32.000000 32.000000 32.000000 32.000000 32.000000 32.000000 32.000000 32.000000 32.000000 32.000000 32.000000 32.000000 32.000000 32.000000 32.000000 32.000000 32.000000 32.000000 32.000000 32.000000 32.000000 32.000000 32.000000 32.000000 32.000000 32.000000 32.000000 32.000000 32.000000 32.000000 32.000000 32.000000 32.000000 32.000000 32.000000 32.000000 32.000000 32.000000 32.000000 32.000000 32.000000 32.000000 32.000000 32.000000 32.000000 32.000000 32.000000 32.000000 32.000000 32.000000 32.000000 32.000000 32.000000 32.000000 32.000000 32.000000 32.000000 32.000000 32.000000 32.000000 32.000000 32.000000 32.000000 32.000000 32.000000 32.000000 32.000000 32.000000 32.000000 32.000000 32.000000 32.000000 32.000000 32.000000 32.000000 32.000000 32.000000 32.000000 32.000000 32.000000 32.000000 32.000000 32.000000 32.000000 32.000000 32.000000 32.000000 32.000000 32.000000 32.000000 32.000000 32.000000 32.000000 32.000000 32.000000 32.000000 32.000000 32.000000 32.000000 32.000000 32.000000 32.000000 32.000000 32.000000 32.000000 32.000000 32.000000 32.000000 32.000000 32.000000 32.000000 32.000000 32.000000 32.000000 32.000000 32.000000 32.000000 32.000000 32.000000 32.000000 32.000000 32.000000 32.000000 32.000000 32.000000 32.000000 32.000000 32.000000 32.000000 32.000000 32.000000 32.000000 32.000000 32.000000 32.000000 32.000000 32.000000 32.000000 32.000000 32.000000
32.377778 32.357009 32.336338 32.315862 32.295677 32.275871 32.256531 32.237734 32.219551 32.202047 32.185276 32.169283 32.154105 32.139768 32.126290 32.113681 32.101938 32.091057 32.081020 32.071807 32.063390 32.055738 32.048813 32.042578 32.036990 32.032006 32.027583 32.023677 32.020244 32.017243 32.014632 32.012372 32.010427 32.008763 32.007346 32.006149 32.005141 32.004303 32.003608 32.003041 32.002579 32.002212 32.001922 32.001702 32.001536 32.001421 32.001344 32.001305 32.001291 32.001304 32.001333 32.001383 32.001443 32.001517 32.001596 32.001687 32.001778 32.001878 32.001976 32.002080 32.002179 32.002283 32.002382 32.002483 32.002577 32.002672 32.002760 32.002848 32.002927 32.003007 32.003078 32.003148 32.003210 32.003270 32.003322 32.003373 32.003417 32.003459 32.003495 32.003528 32.003556 32.003582 32.003603 32.003623 32.003638 32.003651 32.003661 32.003669 32.003673 32.003676 32.003676 32.003673 32.003669 32.003661 32.003651 32.003638 32.003623 32.003603 32.003582 32.003556 32.003528 32.003495 32.003459 32.003417 32.003373 32.003322 32.003270 32.003209 32.003147 32.003078 32.003006 32.002927 32.002847 32.002759 32.002671 32.002576 32.002481 32.002380 32.002281 32.002176 32.002075 32.001970 32.001870 32.001768 32.001673 32.001579 32.001494 32.001413 32.001346 32.001285 32.001243 32.001214 32.001208 32.001223 32.001271 32.001349 32.001472 32.001639 32.001867 32.002159 32.002533 32.002997 32.003570 32.004267 32.005111 32.006120 32.007322 32.008741 32.010408 32.012355 32.014617 32.017230 32.020234 32.023668 32.027575 32.031999 32.036984 32.042573 32.048809 32.055734 32.063387 32.071805 32.081018 32.091055 32.101937 32.113680 32.126290 32.139768 32.154105 32.169283 32.185276 32.202047 32.219551 32.237733 32.256531 32.275871 32.295677 32.315862 32.336338 32.357009 32.377778
32.755556 32.714017 32.672675 32.631725 32.591354 32.551743 32.513061 32.475467 32.439103 32.404095 32.370553 32.338567 32.308210 32.279537 32.252581 32.227361 32.203877 32.182114 32.162041 32.143615 32.126781 32.111477 32.097628 32.085157 32.073982 32.064015 32.055170 32.047358 32.040494 32.034491 32.029271 32.024753 32.020866 32.017537 32.014707 32.012312 32.010303 32.008626 32.007243 32.006107 32.005192 32.004458 32.003887 32.003446 32.003125 32.002896 32.002754 32.002675 32.002660 32.002686 32.002760 32.002859 32.002994 32.003143 32.003318 32.003498 32.003698 32.003897 32.004111 32.004317 32.004535 32.004742 32.004955 32.005156 32.005360 32.005550 32.005740 32.005915 32.006088 32.006245 32.006400 32.006538 32.006673 32.006792 32.006907 32.007008 32.007103 32.007186 32.007264 32.007330 32.007391 32.007442 32.007489 32.007527 32.007560 32.007586 32.007607 32.007622 32.007633 32.007638 32.007638 32.007633 32.007622 32.007607 32.007586 32.007560 32.007527 32.007489 32.007442 32.007391 32.007330 32.007264 32.007186 32.007103 32.007008 32.006907 32.006792 32.006673 32.006538 32.006400 32.006245 32.006088 32.005914 32.005739 32.005548 32.005358 32.005153 32.004952 32.004737 32.004528 32.004308 32.004099 32.003881 32.003678 32.003471 32.003283 32.003097 32.002935 32.002784 32.002664 32.002564 32.002506 32.002481 32.002512 32.002594 32.002752 32.002986 32.003322 32.003767 32.004352 32.005091 32.006019 32.007160 32.008555 32.010236 32.012255 32.014654 32.017493 32.020825 32.024719 32.029240 32.034466 32.040471 32.047339 32.055153 32.064002 32.073970 32.085148 32.097620 32.111470 32.126776 32.143610 32.162037 32.182111 32.203875 32.227359 32.252580 32.279535 32.308209 32.338566 32.370552 32.404094 32.439102 32.475467 32.513061 32.551742 32.591354 32.631725 32.672675 32.714017 32.755556
33.133333 33.071026 33.009013 32.947587 32.887031 32.827614 32.769592 32.713201 32.658654 32.606143 32.555829 32.507851 32.462316 32.419306 32.378873 32.341043 32.305817 32.273172 32.243063 32.215424 32.190175 32.167219 32.146446 32.127742 32.110979 32.096031 32.082764 32.071049 32.060753 32.051754 32.043925 32.037153 32.031323 32.026338 32.022094 32.018511 32.015500 32.012996 32.010924 32.009235 32.007866 32.006782 32.005930 32.005289 32.004813 32.004492 32.004285 32.004192 32.004176 32.004244 32.004362 32.004543 32.004752 32.005009 32.005279 32.005585 32.005892 32.006226 32.006554 32.006900 32.007233 32.007578 32.007905 32.008240 32.008552 32.008868 32.009159 32.009450 32.009714 32.009976 32.010212 32.010443 32.010648 32.010847 32.011022 32.011189 32.011335 32.011472 32.011590 32.011701 32.011794 32.011879 32.011950 32.012013 32.012063 32.012107 32.012139 32.012164 32.012180 32.012188 32.012188 32.012180 32.012164 32.012139 32.012107 32.012063 32.012013 32.011950 32.011879 32.011794 32.011701 32.011590 32.011472 32.011334 32.011189 32.011021 32.010847 32.010648 32.010443 32.010212 32.009976 32.009714 32.009448 32.009157 32.008866 32.008549 32.008236 32.007899 32.007571 32.007222 32.006886 32.006536 32.006203 32.005861 32.005544 32.005226 32.004941 32.004664 32.004430 32.004218 32.004062 32.003945 32.003902 32.003922 32.004040 32.004253 32.004598 32.005082 32.005746 32.006606 32.007712 32.009089 32.010797 32.012877 32.015398 32.018416 32.022014 32.026264 32.031261 32.037096 32.043878 32.051712 32.060718 32.071018 32.082738 32.096008 32.110961 32.127726 32.146434 32.167208 32.190166 32.215417 32.243057 32.273167 32.305813 32.341040 32.378870 32.419304 32.462314 32.507849 32.555828 32.606142 32.658654 32.713200 32.769592 32.827614 32.887030 32.947587 33.009013 33.071026 33.133333
33.511111 33.428034 33.345351 33.263450 33.182708 33.103485 33.026123 32.950935 32.878206 32.808190 32.741106 32.677135 32.616422 32.559075 32.505165 32.454726 32.407759 32.364232 32.324087 32.287237 32.253572 32.222964 32.195270 32.170332 32.147985 32.128055 32.110370 32.094752 32.081032 32.069035 32.058604 32.049579 32.041817 32.035174 32.029531 32.024759 32.020762 32.017431 32.014691 32.012448 32.010649 32.009215 32.008112 32.007270 32.006673 32.006259 32.006026 32.005919 32.005946 32.006056 32.006266 32.006527 32.006863 32.007226 32.007646 32.008075 32.008546 32.009013 32.009512 32.009994 32.010499 32.010980 32.011476 32.011941 32.012413 32.012852 32.013292 32.013695 32.014096 32.014459 32.014815 32.015134 32.015445 32.015720 32.015984 32.016215 32.016436 32.016626 32.016804 32.016956 32.017097 32.017215 32.017322 32.017408 32.017485 32.017544 32.017594 32.017628 32.017652 32.017663 32.017663 32.017652 32.017628 32.017594 32.017544 32.017485 32.017408 32.017322 32.017215 32.017097 32.016956 32.016804 32.016625 32.016436 32.016215 32.015984 32.015720 32.015445 32.015134 32.014815 32.014458 32.014095 32.013694 32.013290 32.012849 32.012409 32.011935 32.011468 32.010970 32.010486 32.009976 32.009488 32.008982 32.008505 32.008021 32.007575 32.007135 32.006746 32.006376 32.006074 32.005813 32.005639 32.005533 32.005543 32.005657 32.005926 32.006349 32.006981 32.007834 32.008970 32.010416 32.012244 32.014499 32.017265 32.020608 32.024627 32.029409 32.035071 32.041723 32.049500 32.058533 32.068976 32.080979 32.094709 32.110332 32.128024 32.147957 32.170310 32.195251 32.222949 32.253559 32.287226 32.324078 32.364225 32.407753 32.454721 32.505161 32.559072 32.616420 32.677133 32.741105 32.808189 32.878205 32.950934 33.026122 33.103485 33.182707 33.263450 33.345351 33.428034 33.511111
33.888889 33.785043 33.681689 33.579312 33.478385 33.379357 33.282654 33.188669 33.097758 33.010239 32.926383 32.846420 32.770529 32.698846 32.631458 32.568410 32.509702 32.455295 32.405115 32.359053 32.316974 32.278717 32.244101 32.212933 32.185001 32.160095 32.137992 32.118478 32.101332 32.086347 32.073315 32.062048 32.052354 32.044070 32.037026 32.031087 32.026104 32.021972 32.018563 32.015798 32.013570 32.011824 32.010468 32.009471 32.008752 32.008299 32.008039 32.007978 32.008046 32.008263 32.008563 32.008975 32.009435 32.009981 32.010548 32.011180 32.011812 32.012493 32.013159 32.013860 32.014532 32.015228 32.015887 32.016559 32.017187 32.017820 32.018403 32.018986 32.019516 32.020040 32.020512 32.020973 32.021383 32.021780 32.022129 32.022463 32.022753 32.023027 32.023262 32.023482 32.023667 32.023837 32.023977 32.024103 32.024203 32.024289 32.024353 32.024404 32.024435 32.024451 32.024451 32.024435 32.024404 32.024353 32.024289 32.024203 32.024103 32.023977 32.023837 32.023667 32.023482 32.023262 32.023027 32.022752 32.022462 32.022128 32.021779 32.021383 32.020972 32.020511 32.020039 32.019515 32.018984 32.018401 32.017816 32.017182 32.016552 32.015877 32.015216 32.014515 32.013837 32.013129 32.012454 32.011761 32.011112 32.010460 32.009868 32.009289 32.008788 32.008323 32.007959 32.007661 32.007494 32.007434 32.007546 32.007818 32.008320 32.009055 32.010098 32.011471 32.013259 32.015505 32.018307 32.021733 32.025898 32.030896 32.036863 32.043921 32.052228 32.061934 32.073220 32.086262 32.101261 32.118415 32.137941 32.160050 32.184964 32.212901 32.244076 32.278695 32.316956 32.359038 32.405103 32.455285 32.509694 32.568404 32.631453 32.698842 32.770526 32.846417 32.926381 33.010237 33.097757 33.188668 33.282653 33.379356 33.478384 33.579312 33.681689 33.785043 33.888889
34.266667 34.142051 34.018027 33.895175 33.774062 33.655229 33.539185 33.426403 33.317311 33.212287 33.111661 33.015705 32.924637 32.838618 32.757754 32.682097 32.611648 32.546361 32.486147 32.430875 32.380383 32.334477 32.292944 32.255545 32.222034 32.192152 32.165639 32.142228 32.121667 32.103695 32.088076 32.074567 32.062960 32.053035 32.044615 32.037508 32.031571 32.026637 32.022599 32.019311 32.016701 32.014642 32.013091 32.011938 32.011163 32.010669 32.010458 32.010440 32.010635 32.010957 32.011441 32.012001 32.012687 32.013411 32.014231 32.015061 32.015964 32.016853 32.017797 32.018709 32.019659 32.020563 32.021491 32.022363 32.023247 32.024066 32.024888 32.025641 32.026387 32.027063 32.027727 32.028321 32.028898 32.029409 32.029900 32.030330 32.030738 32.031090 32.031421 32.031703 32.031964 32.032181 32.032379 32.032540 32.032681 32.032791 32.032882 32.032945 32.032990 32.033011 32.033011 32.032990 32.032945 32.032882 32.032791 32.032681 32.032540 32.032379 32.032181 32.031964 32.031703 32.031421 32.031090 32.030738 32.030329 32.029900 32.029409 32.028898 32.028321 32.027726 32.027062 32.026385 32.025638 32.024884 32.024062 32.023240 32.022355 32.021480 32.020548 32.019638 32.018682 32.017761 32.016806 32.015901 32.014980 32.014126 32.013275 32.012511 32.011776 32.011153 32.010592 32.010174 32.009860 32.009732 32.009765 32.010043 32.010556 32.011395 32.012571 32.014182 32.016264 32.018929 32.022239 32.026326 32.031282 32.037260 32.044387 32.052841 32.062783 32.074418 32.087942 32.103583 32.121568 32.142147 32.165567 32.192093 32.221983 32.255503 32.292908 32.334449 32.380359 32.430856 32.486131 32.546349 32.611637 32.682088 32.757747 32.838613 32.924633 33.015702 33.111659 33.212285 33.317309 33.426402 33.539184 33.655228 33.774061 33.895175 34.018027 34.142051 34.266667
34.644444 34.499060 34.354365 34.211038 34.069739 33.931101 33.795717 33.664138 33.536864 33.414337 33.296940 33.184992 33.078747 32.978392 32.884051 32.795786 32.713598 32.637433 32.567185 32.502705 32.443801 32.390250 32.341798 32.298175 32.259086 32.224235 32.193312 32.166018 32.142042 32.121098 32.102891 32.087164 32.073643 32.062106 32.052310 32.044072 32.037180 32.031491 32.026822 32.023070 32.020075 32.017774 32.016025 32.014797 32.013964 32.013524 32.013359 32.013491 32.013809 32.014354 32.015017 32.015855 32.016760 32.017800 32.018867 32.020037 32.021203 32.022447 32.023659 32.024929 32.026147 32.027402 32.028589 32.029798 32.030926 32.032062 32.033109 32.034152 32.035102 32.036038 32.036882 32.037705 32.038438 32.039145 32.039767 32.040362 32.040879 32.041367 32.041785 32.042175 32.042504 32.042806 32.043055 32.043278 32.043455 32.043608 32.043722 32.043810 32.043866 32.043895 32.043895 32.043866 32.043810 32.043722 32.043608 32.043455 32.043278 32.043055 32.042806 32.042504 32.042175 32.041785 32.041367 32.040878 32.040362 32.039767 32.039144 32.038437 32.037704 32.036881 32.036037 32.035100 32.034149 32.033105 32.032056 32.030919 32.029788 32.028576 32.027384 32.026123 32.024897 32.023618 32.022391 32.021130 32.019943 32.018744 32.017641 32.016555 32.015592 32.014682 32.013928 32.013271 32.012814 32.012512 32.012469 32.012658 32.013185 32.014047 32.015357 32.017137 32.019514 32.022540 32.026360 32.031060 32.036808 32.043728 32.052016 32.061837 32.073416 32.086958 32.102720 32.120944 32.141914 32.165905 32.193220 32.224154 32.259020 32.298117 32.341752 32.390210 32.443769 32.502678 32.567163 32.637415 32.713584 32.795775 32.884042 32.978384 33.078741 33.184987 33.296937 33.414334 33.536861 33.664136 33.795715 33.931100 34.069738 34.211037 34.354364 34.499060 34.644444
35.022222 34.856069 34.690703 34.526901 34.365417 34.206973 34.052249 33.901873 33.756417 33.616387 33.482220 33.354280 33.232858 33.118168 33.010352 32.909479 32.815553 32.728509 32.648231 32.574543 32.507231 32.446036 32.390673 32.340825 32.296166 32.256348 32.221028 32.189849 32.162477 32.138561 32.117793 32.099844 32.084443 32.071293 32.060164 32.050794 32.043002 32.036556 32.031324 32.027104 32.023809 32.021261 32.019413 32.018107 32.017331 32.016940 32.016952 32.017229 32.017816 32.018579 32.019582 32.020690 32.021987 32.023335 32.024829 32.026332 32.027947 32.029534 32.031205 32.032820 32.034492 32.036085 32.037713 32.039244 32.040790 32.042225 32.043659 32.044976 32.046276 32.047457 32.048611 32.049647 32.050650 32.051538 32.052391 32.053136 32.053844 32.054455 32.055028 32.055516 32.055967 32.056343 32.056684 32.056962 32.057206 32.057396 32.057552 32.057663 32.057739 32.057775 32.057775 32.057739 32.057663 32.057552 32.057396 32.057206 32.056962 32.056684 32.056343 32.055967 32.055516 32.055028 32.054455 32.053844 32.053136 32.052390 32.051538 32.050649 32.049646 32.048610 32.047455 32.046274 32.044972 32.043655 32.042219 32.040782 32.039233 32.037698 32.036065 32.034465 32.032784 32.031157 32.029471 32.027864 32.026224 32.024689 32.023153 32.021752 32.020390 32.019198 32.018092 32.017201 32.016456 32.015984 32.015735 32.015838 32.016265 32.017152 32.018499 32.020451 32.023041 32.026431 32.030692 32.036008 32.042492 32.050357 32.059762 32.070951 32.084133 32.099583 32.117557 32.138365 32.162302 32.189705 32.220901 32.256244 32.296076 32.340752 32.390609 32.445985 32.507187 32.574508 32.648202 32.728487 32.815534 32.909465 33.010340 33.118158 33.232850 33.354274 33.482215 33.616384 33.756414 33.901871 34.052247 34.206972 34.365416 34.526900 34.690702 34.856069 35.022222
35.400000 35.213077 35.027041 34.842764 34.661094 34.482845 34.308781 34.139609 33.975972 33.818439 33.667501 33.523570 33.386971 33.257947 33.136656 33.023178 32.917513 32.819595 32.729285 32.646394 32.570674 32.501841 32.439567 32.383505 32.333277 32.288505 32.248789 32.213746 32.182976 32.156117 32.132784 32.112654 32.095371 32.080656 32.068192 32.057753 32.049056 32.041933 32.036135 32.031544 32.027944 32.025266 32.023314 32.022066 32.021341 32.021156 32.021339 32.021939 32.022789 32.023965 32.025300 32.026892 32.028571 32.030452 32.032364 32.034433 32.036485 32.038657 32.040771 32.042971 32.045082 32.047248 32.049299 32.051377 32.053321 32.055269 32.057069 32.058855 32.060485 32.062086 32.063531 32.064935 32.066188 32.067394 32.068457 32.069469 32.070349 32.071179 32.071891 32.072553 32.073112 32.073624 32.074046 32.074424 32.074725 32.074983 32.075176 32.075326 32.075421 32.075470 32.075470 32.075421 32.075326 32.075176 32.074983 32.074725 32.074424 32.074046 32.073624 32.073112 32.072553 32.071891 32.071179 32.070349 32.069468 32.068456 32.067393 32.066188 32.064934 32.063530 32.062084 32.060483 32.058851 32.057064 32.055262 32.053312 32.051365 32.049282 32.047225 32.045052 32.042931 32.040717 32.038586 32.036392 32.034312 32.032205 32.030248 32.028307 32.026553 32.024868 32.023417 32.022097 32.021069 32.020250 32.019801 32.019661 32.019994 32.020771 32.022158 32.024166 32.026973 32.030630 32.035336 32.041188 32.048413 32.057159 32.067684 32.080192 32.094978 32.112299 32.132487 32.155850 32.182755 32.213550 32.248628 32.288364 32.333162 32.383406 32.439487 32.501773 32.570620 32.646348 32.729248 32.819564 32.917489 33.023158 33.136641 33.257934 33.386961 33.523562 33.667495 33.818434 33.975968 34.139606 34.308779 34.482844 34.661093 34.842763 35.027040 35.213077 35.400000
35.777778 35.570086 35.363379 35.158627 34.956773 34.758718 34.565314 34.377345 34.195527 34.020491 33.852784 33.692862 33.541088 33.397730 33.262966 33.136882 33.019482 32.910688 32.810353 32.718259 32.634139 32.557668 32.488493 32.426216 32.370435 32.320709 32.276617 32.237709 32.203573 32.173768 32.147915 32.125599 32.106489 32.090207 32.076478 32.064966 32.055456 32.047650 32.041397 32.036430 32.032660 32.029845 32.027950 32.026753 32.026266 32.026279 32.026845 32.027759 32.029109 32.030689 32.032615 32.034679 32.037019 32.039421 32.042042 32.044664 32.047454 32.050192 32.053055 32.055820 32.058671 32.061387 32.064152 32.066755 32.069373 32.071808 32.074232 32.076460 32.078656 32.080650 32.082595 32.084342 32.086029 32.087526 32.088956 32.090211 32.091397 32.092423 32.093382 32.094200 32.094953 32.095584 32.096153 32.096618 32.097024 32.097341 32.097602 32.097786 32.097913 32.097973 32.097973 32.097913 32.097786 32.097602 32.097341 32.097024 32.096618 32.096153 32.095584 32.094953 32.094200 32.093382 32.092423 32.091397 32.090210 32.088956 32.087525 32.086028 32.084341 32.082594 32.080648 32.078653 32.076457 32.074227 32.071801 32.069363 32.066741 32.064133 32.061362 32.058637 32.055775 32.052995 32.050113 32.047351 32.044528 32.041867 32.039194 32.036726 32.034303 32.032136 32.030080 32.028340 32.026793 32.025636 32.024773 32.024399 32.024451 32.025124 32.026393 32.028462 32.031351 32.035280 32.040320 32.046714 32.054588 32.064219 32.075793 32.089624 32.105959 32.125152 32.147513 32.173433 32.203275 32.237464 32.276401 32.320532 32.370280 32.426092 32.488385 32.557581 32.634065 32.718200 32.810303 32.910649 33.019450 33.136856 33.262945 33.397714 33.541075 33.692852 33.852776 34.020485 34.195522 34.377342 34.565311 34.758716 34.956771 35.158626 35.363378 35.570086 35.777778
36.155556 35.927095 35.699718 35.474490 35.252451 35.034592 34.821847 34.615083 34.415084 34.222546 34.038070 33.862158 33.695208 33.537518 33.389280 33.250594 33.121459 33.001796 32.891434 32.790145 32.697624 32.613526 32.537450 32.468976 32.407640 32.352984 32.304516 32.261777 32.224271 32.191567 32.163188 32.138748 32.117807 32.100037 32.085040 32.072555 32.062226 32.053864 32.047149 32.041961 32.038012 32.035247 32.033400 32.032472 32.032213 32.032676 32.033614 32.035126 32.036963 32.039260 32.041763 32.044638 32.047623 32.050906 32.054219 32.057766 32.061274 32.064960 32.068546 32.072259 32.075822 32.079462 32.082911 32.086395 32.089656 32.092914 32.095928 32.098909 32.101634 32.104301 32.106711 32.109047 32.111134 32.113135 32.114902 32.116579 32.118041 32.119414 32.120594 32.121688 32.122613 32.123457 32.124156 32.124777 32.125275 32.125699 32.126018 32.126264 32.126420 32.126501 32.126501 32.126420 32.126264 32.126018 32.125699 32.125275 32.124777 32.124155 32.123457 32.122613 32.121688 32.120594 32.119414 32.118041 32.116579 32.114902 32.113135 32.111133 32.109046 32.106710 32.104298 32.101630 32.098904 32.095922 32.092906 32.089645 32.086380 32.082891 32.079434 32.075784 32.072209 32.068481 32.064873 32.061160 32.057618 32.054025 32.050656 32.047301 32.044225 32.041236 32.038590 32.036117 32.034063 32.032284 32.031019 32.030160 32.029940 32.030291 32.031449 32.033395 32.036374 32.040421 32.045801 32.052609 32.061140 32.071554 32.084182 32.099255 32.117144 32.138150 32.162686 32.191118 32.223899 32.261447 32.304245 32.352746 32.407446 32.468809 32.537315 32.613410 32.697531 32.790066 32.891372 33.001743 33.121419 33.250560 33.389254 33.537496 33.695191 33.862144 34.038059 34.222537 34.415077 34.615078 34.821844 35.034589 35.252449 35.474489 35.699717 35.927095 36.155556
36.533333 36.284104 36.036056 35.790354 35.548130 35.310466 35.078382 34.852822 34.634642 34.424602 34.223358 34.031456 33.849333 33.677311 33.515604 33.364315 33.223451 33.092916 32.972537 32.862051 32.761142 32.669417 32.586458 32.511785 32.444919 32.385331 32.332522 32.285948 32.245124 32.209515 32.178678 32.152109 32.129425 32.110161 32.094007 32.080543 32.069536 32.060610 32.053608 32.048190 32.044276 32.041549 32.040002 32.039332 32.039595 32.040494 32.042139 32.044233 32.046931 32.049927 32.053417 32.057083 32.061151 32.065293 32.069757 32.074205 32.078903 32.083508 32.088296 32.092922 32.097669 32.102196 32.106786 32.111111 32.115448 32.119486 32.123493 32.127181 32.130802 32.134097 32.137300 32.140181 32.142953 32.145417 32.147765 32.149826 32.151768 32.153452 32.155020 32.156359 32.157589 32.158620 32.159549 32.160307 32.160969 32.161486 32.161910 32.162210 32.162416 32.162515 32.162515 32.162416 32.162210 32.161910 32.161486 32.160969 32.160307 32.159549 32.158620 32.157589 32.156359 32.155020 32.153452 32.151768 32.149825 32.147764 32.145417 32.142952 32.140179 32.137299 32.134095 32.130799 32.127176 32.123487 32.119477 32.115436 32.111094 32.106764 32.102166 32.097628 32.092868 32.088224 32.083414 32.078779 32.074043 32.069546 32.065020 32.060800 32.056633 32.052842 32.049197 32.046008 32.043073 32.040688 32.038687 32.037355 32.036569 32.036610 32.037406 32.039239 32.042095 32.046269 32.051814 32.059045 32.068090 32.079296 32.092865 32.109187 32.128541 32.151364 32.178009 32.208956 32.244627 32.285538 32.332161 32.385035 32.444661 32.511576 32.586278 32.669273 32.761018 32.861954 32.972454 33.092851 33.223396 33.364272 33.515569 33.677284 33.849311 34.031439 34.223344 34.424592 34.634634 34.852816 35.078377 35.310462 35.548127 35.790353 36.036055 36.284104 36.533333
36.911111 36.641113 36.372395 36.106219 35.843809 35.586341 35.334918 35.090562 34.854202 34.626661 34.408649 34.200759 34.003463 33.817112 33.641935 33.478049 33.325454 33.184058 33.053660 32.933991 32.824691 32.725358 32.635514 32.554668 32.482270 32.417789 32.360636 32.310281 32.266132 32.227691 32.194390 32.165787 32.141352 32.120718 32.103398 32.089113 32.077419 32.068125 32.060826 32.055418 32.051525 32.049126 32.047864 32.047792 32.048559 32.050285 32.052619 32.055736 32.059273 32.063457 32.067909 32.072895 32.078018 32.083578 32.089162 32.095092 32.100946 32.107061 32.113010 32.119140 32.125026 32.131017 32.136699 32.142418 32.147777 32.153114 32.158058 32.162929 32.167390 32.171742 32.175681 32.179485 32.182888 32.186141 32.189017 32.191739 32.194114 32.196338 32.198251 32.200020 32.201518 32.202880 32.204009 32.205011 32.205814 32.206498 32.207012 32.207408 32.207658 32.207788 32.207788 32.207658 32.207408 32.207012 32.206498 32.205814 32.205011 32.204009 32.202880 32.201518 32.200020 32.198251 32.196337 32.194114 32.191739 32.189017 32.186141 32.182887 32.179483 32.175679 32.171739 32.167387 32.162924 32.158050 32.153104 32.147764 32.142400 32.136674 32.130984 32.124982 32.119081 32.112932 32.106959 32.100811 32.094916 32.088933 32.083282 32.077637 32.072406 32.067286 32.062666 32.058274 32.054479 32.051047 32.048327 32.046132 32.044798 32.044190 32.044638 32.046068 32.048815 32.052875 32.058596 32.066054 32.075622 32.087461 32.101980 32.119427 32.140255 32.164799 32.193560 32.226950 32.265516 32.309736 32.360188 32.417397 32.481951 32.554392 32.635291 32.725167 32.824539 32.933861 33.053558 33.183972 33.325387 33.477993 33.641891 33.817076 34.003436 34.200737 34.408632 34.626647 34.854192 35.090554 35.334912 35.586336 35.843806 36.106216 36.372394 36.641112 36.911111
37.288889 36.998122 36.708734 36.422083 36.139490 35.862217 35.591455 35.328304 35.073765 34.828723 34.593945 34.370067 34.157601 33.956921 33.768279 33.591795 33.427479 33.275219 33.134816 33.005962 32.888292 32.781347 32.684646 32.597625 32.519736 32.450356 32.388915 32.334772 32.287376 32.246096 32.210434 32.179788 32.153737 32.131722 32.113411 32.098292 32.086129 32.076453 32.069127 32.063713 32.060170 32.058080 32.057492 32.057996 32.059721 32.062252 32.065788 32.069903 32.074855 32.080197 32.086240 32.092512 32.099364 32.106304 32.113715 32.121085 32.128820 32.136398 32.144240 32.151819 32.159566 32.166961 32.174432 32.181480 32.188523 32.195089 32.201583 32.207567 32.213425 32.218761 32.223932 32.228588 32.233055 32.237030 32.240805 32.244123 32.247241 32.249946 32.252459 32.254606 32.256573 32.258224 32.259706 32.260918 32.261974 32.262799 32.263474 32.263953 32.264282 32.264438 32.264438 32.264282 32.263953 32.263474 32.262799 32.261974 32.260918 32.259706 32.258223 32.256573 32.254606 32.252458 32.249946 32.247241 32.244122 32.240804 32.237029 32.233054 32.228586 32.223930 32.218758 32.213421 32.207561 32.201575 32.195079 32.188509 32.181460 32.174406 32.166926 32.159519 32.151756 32.144156 32.136288 32.128676 32.120896 32.113469 32.105986 32.098954 32.091986 32.085569 32.079345 32.073779 32.068549 32.064095 32.060143 32.057107 32.054773 32.053535 32.053246 32.054293 32.056602 32.060564 32.066191 32.073890 32.083763 32.096248 32.111543 32.130125 32.152292 32.178567 32.209339 32.245181 32.286564 32.334100 32.388324 32.449872 32.519314 32.597284 32.684352 32.781111 32.888090 33.005802 33.134681 33.275113 33.427390 33.591726 33.768222 33.956877 34.157565 34.370040 34.593922 34.828706 35.073752 35.328294 35.591447 35.862211 36.139486 36.422080 36.708732 36.998122 37.288889
37.666667 37.355132 37.045074 36.737949 36.435171 36.138094 35.847993 35.566049 35.293331 35.030790 34.779245 34.539383 34.311746 34.096743 33.894635 33.705562 33.529523 33.366413 33.216002 33.077983 32.951940 32.837413 32.733851 32.640697 32.557310 32.483091 32.417356 32.359507 32.308855 32.264846 32.226811 32.194268 32.166588 32.143382 32.124064 32.108352 32.095704 32.085947 32.078573 32.073521 32.070304 32.068965 32.069026 32.070624 32.073278 32.077208 32.081917 32.087700 32.094033 32.101274 32.108869 32.117229 32.125766 32.134937 32.144124 32.153816 32.163375 32.173313 32.182982 32.192906 32.202441 32.212113 32.221294 32.230505 32.239147 32.247724 32.255678 32.263492 32.270655 32.277621 32.283933 32.290009 32.295451 32.300638 32.305228 32.309558 32.313341 32.316871 32.319913 32.322716 32.325093 32.327247 32.329035 32.330617 32.331888 32.332966 32.333778 32.334402 32.334798 32.335002 32.335002 32.334798 32.334402 32.333778 32.332966 32.331888 32.330617 32.329035 32.327247 32.325092 32.322716 32.319913 32.316871 32.313341 32.309558 32.305228 32.300638 32.295450 32.290008 32.283930 32.277618 32.270651 32.263486 32.255670 32.247713 32.239131 32.230484 32.221266 32.212075 32.202391 32.192839 32.182893 32.173195 32.163220 32.153613 32.143860 32.134596 32.125327 32.116665 32.108150 32.100362 32.092880 32.086251 32.080103 32.074949 32.070478 32.067170 32.064787 32.063786 32.064008 32.065902 32.069399 32.074952 32.082590 32.092786 32.105675 32.121762 32.141291 32.164809 32.192668 32.225463 32.263646 32.307855 32.358625 32.416629 32.482456 32.556792 32.640249 32.733489 32.837104 32.951692 33.077773 33.215836 33.366274 33.529414 33.705471 33.894565 34.096685 34.311702 34.539347 34.779218 35.030768 35.293314 35.566036 35.847984 36.138087 36.435166 36.737945 37.045072 37.355131 37.666667