<?xml version="1.0"?>
<VTKFile type="ImageData" version="0.1" byte_order="LittleEndian">
  <ImageData WholeExtent="0 180 0 180 0 0" Origin="0.0 0.0 0.0" Spacing="0.05 0.05 1">
    <Piece Extent="0 180 0 180 0 0">
      <PointData Scalars="Temperature">
        <DataArray type="Float32" Name="Temperature" format="ascii">
32.000000 32.000000 32.000000 32.000000 32.000000 32.000000 32.000000 32.000000 32.000000 32.000000 32.000000 32.000000 32.000000 32.000000 32.000000 32.000000 32.000000 32.000000 32.000000 32.000000 32.000000 32.000000 32.000000 32.000000 32.000000 32.000000 32.000000 32.000000 32.000000 32.000000 32.000000 32.000000 32.000000 32.000000 32.000000 32.000000 32.000000 32.000000 32.000000 32.000000 32.000000 32.000000 32.000000 32.000000 32.000000 32.000000 32.000000 32.000000 32.000000 32.000000 32.000000 32.000000 32.000000 32.000000 32.000000 32.000000 32.000000 32.000000 32.000000 32.000000 32.000000 32.000000 32.000000 32.000000 32.000000 32.000000 32.000000 32.000000 32.000000 32.000000 32.000000 32.000000 32.000000 32.000000 32.000000 32.000000 32.000000 32.000000 32.000000 32.000000 32.000000 32.000000 32.000000 32.000000 32.000000 32.000000 32.000000 32.000000 32.000000 32.000000 32.000000 32.000000 32.000000 32.000000 32.000000 32.000000 32.000000 32.000000 32.000000 32.000000 32.000000 32.000000 32.000000 32.000000 32.000000 32.000000 32.000000 32.000000 32.000000 32.000000 32.000000 32.000000 32.000000 32.000000 32.000000 32.000000 32.000000 32.000000 32.000000 32.000000 32.000000 32.000000 32.000000 32.000000 32.000000 32.000000 32.000000 32.000000 32.000000 32.000000 32.000000 32.000000 32.000000 32.000000 32.000000 32.000000 32.000000 32.000000 32.000000 32.000000 32.000000 32.000000 32.000000 32.000000 32.000000 32.000000 32.000000 32.000000 32.000000 32.000000 32.000000 32.000000 32.000000 32.000000 32.000000 32.000000 32.000000 32.000000 32.000000 32.000000 32.000000 32.000000 32.000000 32.000000 32.000000 32.000000 32.000000 32.000000 32.000000 32.000000 32.000000 32.000000 32.000000 32.000000 32.000000 32.000000 32.000000 32.000000 32.000000 32.000000 32.000000
32.377778 32.365168 32.352589 32.340077 32.327658 32.315370 32.303237 32.291298 32.279572 32.268099 32.256896 32.246002 32.235427 32.225214 32.215366 32.205927 32.196894 32.188310 32.180166 32.172507 32.165316 32.158639 32.152451 32.146800 32.141652 32.137058 32.132974 32.129455 32.126445 32.124004 32.122067 32.120694 32.119813 32.119488 32.119634 32.120322 32.121456 32.123109 32.125179 32.127741 32.130683 32.134086 32.137829 32.141994 32.146455 32.151298 32.156389 32.161816 32.167441 32.173356 32.179416 32.185716 32.192109 32.198691 32.205315 32.212077 32.218830 32.225672 32.232455 32.239280 32.246001 32.252719 32.259291 32.265818 32.272163 32.278424 32.284472 32.290401 32.296091 32.301633 32.306913 32.312020 32.316850 32.321484 32.325830 32.329963 32.333800 32.337409 32.340718 32.343788 32.346558 32.349079 32.351300 32.353265 32.354933 32.356338 32.357451 32.358295 32.358851 32.359131 32.359130 32.358848 32.358290 32.357444 32.356329 32.354922 32.353250 32.351283 32.349057 32.346533 32.343759 32.340684 32.337368 32.333752 32.329908 32.325767 32.321411 32.316766 32.311923 32.306802 32.301506 32.295946 32.290236 32.284284 32.278210 32.271921 32.265544 32.258982 32.252370 32.245609 32.238840 32.231962 32.225121 32.218215 32.211393 32.204554 32.197848 32.191174 32.184683 32.178276 32.172102 32.166063 32.160305 32.154734 32.149491 32.144485 32.139850 32.135500 32.131562 32.127952 32.124791 32.122000 32.119689 32.117784 32.116387 32.115427 32.114996 32.115028 32.115606 32.116667 32.118285 32.120400 32.123076 32.126257 32.129999 32.134247 32.139048 32.144351 32.150193 32.156525 32.163377 32.170701 32.178518 32.186784 32.195510 32.204654 32.214220 32.224168 32.234494 32.245159 32.256154 32.267439 32.279002 32.290803 32.302824 32.315027 32.327389 32.339875 32.352457 32.365101 32.377778
32.755556 32.730342 32.705194 32.680172 32.655347 32.630773 32.606523 32.582643 32.559212 32.536264 32.513881 32.492089 32.470970 32.450538 32.430879 32.411993 32.393969 32.376792 32.360554 32.345226 32.330902 32.317537 32.305228 32.293913 32.283695 32.274492 32.266412 32.259357 32.253438 32.248537 32.244773 32.242009 32.240370 32.239698 32.240127 32.241480 32.243896 32.247180 32.251479 32.256578 32.262634 32.269413 32.277080 32.285384 32.294497 32.304155 32.314535 32.325361 32.336817 32.348615 32.360946 32.373515 32.386515 32.399647 32.413109 32.426599 32.440319 32.453967 32.467745 32.481358 32.495008 32.508405 32.521751 32.534766 32.547648 32.560131 32.572409 32.584228 32.595779 32.606823 32.617543 32.627719 32.637523 32.646756 32.655578 32.663810 32.671598 32.678786 32.685504 32.691617 32.697239 32.702258 32.706767 32.710678 32.714066 32.716862 32.719122 32.720800 32.721929 32.722488 32.722486 32.721924 32.720790 32.719108 32.716844 32.714042 32.710649 32.706732 32.702216 32.697189 32.691558 32.685435 32.678705 32.671504 32.663701 32.655451 32.646610 32.637355 32.627526 32.617321 32.606569 32.595488 32.583898 32.572032 32.559704 32.547164 32.534218 32.521132 32.507708 32.494225 32.480479 32.466760 32.452865 32.439090 32.425230 32.411587 32.397959 32.384645 32.371449 32.358668 32.346107 32.334061 32.322339 32.311227 32.300541 32.290557 32.281096 32.272422 32.264364 32.257171 32.250679 32.245121 32.240340 32.236553 32.233611 32.231712 32.230716 32.230800 32.231833 32.233974 32.237099 32.241346 32.246599 32.252978 32.260373 32.268885 32.278409 32.289028 32.300644 32.313321 32.326966 32.341625 32.357209 32.373749 32.391159 32.409455 32.428551 32.448452 32.469075 32.490409 32.512374 32.534949 32.558054 32.581657 32.605683 32.630089 32.654801 32.679770 32.704925 32.730209 32.755556
33.133333 33.095531 33.057823 33.020314 32.983088 32.946255 32.909889 32.874105 32.838964 32.804586 32.771018 32.738382 32.706708 32.676123 32.646639 32.618385 32.591353 32.565677 32.541326 32.518437 32.496958 32.477030 32.458575 32.441742 32.426424 32.412779 32.400672 32.390269 32.381405 32.374256 32.368629 32.364708 32.362271 32.361512 32.362181 32.364482 32.368135 32.373357 32.379837 32.387805 32.396924 32.407434 32.418972 32.431788 32.445498 32.460362 32.475974 32.492605 32.509831 32.527933 32.546471 32.565735 32.585276 32.605389 32.625621 32.646272 32.666888 32.687770 32.708471 32.729293 32.749795 32.770281 32.790323 32.810220 32.829561 32.848642 32.867071 32.885135 32.902468 32.919345 32.935427 32.950976 32.965680 32.979787 32.993015 33.005592 33.017267 33.028248 33.038317 33.047655 33.056080 33.063746 33.070502 33.076476 33.081550 33.085822 33.089206 33.091770 33.093461 33.094314 33.094311 33.093453 33.091755 33.089186 33.085794 33.081515 33.076433 33.070449 33.063683 33.056005 33.047567 33.038213 33.028127 33.017126 33.005428 32.992825 32.979568 32.965428 32.950686 32.935094 32.918964 32.902032 32.884639 32.866506 32.848001 32.828835 32.809398 32.789395 32.769236 32.748620 32.727974 32.706993 32.686118 32.665044 32.644219 32.623339 32.602857 32.582472 32.562636 32.543054 32.524170 32.505697 32.488072 32.471012 32.454941 32.439587 32.425356 32.411985 32.399861 32.388730 32.378957 32.370300 32.363097 32.357120 32.352679 32.349558 32.348038 32.347916 32.349444 32.352430 32.357099 32.363268 32.371132 32.380521 32.391601 32.404210 32.418486 32.434277 32.451692 32.470588 32.491048 32.512934 32.536304 32.561026 32.587136 32.614505 32.643146 32.672935 32.703864 32.735813 32.768757 32.802575 32.837227 32.872597 32.908629 32.945209 32.982268 33.019699 33.057420 33.095328 33.133333
33.511111 33.460739 33.410499 33.360513 33.310922 33.261835 33.213400 33.165710 33.118921 33.073106 33.028426 32.984933 32.942795 32.902040 32.862839 32.825195 32.789284 32.755081 32.722768 32.692288 32.663829 32.637303 32.612906 32.590514 32.570331 32.552198 32.536330 32.522528 32.511020 32.501569 32.494414 32.489277 32.486414 32.485506 32.486823 32.490007 32.495342 32.502432 32.511575 32.522338 32.535036 32.549198 32.565155 32.582402 32.601285 32.621271 32.642717 32.665064 32.688682 32.712993 32.738377 32.764239 32.790969 32.817962 32.845616 32.873321 32.901481 32.929490 32.957752 32.985671 33.013652 33.041111 33.068454 33.095116 33.121496 33.147056 33.172185 33.196376 33.220006 33.242599 33.264520 33.285329 33.305369 33.324241 33.342266 33.359087 33.374994 33.389676 33.403393 33.415876 33.427352 33.437596 33.446799 33.454781 33.461693 33.467399 33.472009 33.475433 33.477737 33.478876 33.478872 33.477726 33.475414 33.471981 33.467362 33.461646 33.454724 33.446729 33.437512 33.427252 33.415758 33.403254 33.389514 33.374806 33.358868 33.342013 33.323949 33.305032 33.284942 33.264076 33.242091 33.219425 33.195714 33.171432 33.146201 33.120527 33.094020 33.067217 33.039718 33.012085 32.983912 32.955782 32.927287 32.899023 32.870584 32.842573 32.814586 32.787231 32.760108 32.733821 32.707977 32.683170 32.659019 32.636100 32.614043 32.593405 32.573826 32.555840 32.539100 32.524111 32.510540 32.498859 32.488753 32.480656 32.474270 32.469993 32.467541 32.467275 32.468926 32.472816 32.478693 32.486838 32.497014 32.509462 32.523961 32.540713 32.559507 32.580510 32.603521 32.628672 32.655771 32.684914 32.715920 32.748852 32.783533 32.819998 32.858075 32.897770 32.938917 32.981494 33.025341 33.070413 33.116552 33.163692 33.211681 33.260435 33.309804 33.359689 33.409948 33.460467 33.511111
33.888889 33.825977 33.763225 33.700804 33.638860 33.577574 33.517073 33.457549 33.399105 33.341941 33.286136 33.231897 33.179275 33.128481 33.079537 33.032661 32.987839 32.945296 32.904981 32.867129 32.831646 32.798776 32.768385 32.740726 32.715621 32.693335 32.673642 32.656821 32.642599 32.631271 32.622512 32.616634 32.613264 32.612730 32.614609 32.619248 32.626173 32.635752 32.647462 32.661689 32.677863 32.696392 32.716660 32.739094 32.763038 32.788936 32.816098 32.844982 32.874872 32.906238 32.938339 32.971662 33.005447 33.040191 33.075128 33.110760 33.146322 33.182320 33.217996 33.253860 33.289167 33.324426 33.358913 33.393135 33.426395 33.459191 33.490861 33.521891 33.551660 33.580634 33.608239 33.634918 33.660144 33.684336 33.707017 33.728573 33.748583 33.767396 33.784644 33.800637 33.815064 33.828187 33.839753 33.849977 33.858662 33.865970 33.871762 33.876147 33.879041 33.880500 33.880496 33.879027 33.876123 33.871727 33.865924 33.858603 33.849905 33.839665 33.828082 33.814939 33.800490 33.784471 33.767194 33.748348 33.728300 33.706701 33.683970 33.659723 33.634434 33.607684 33.579999 33.550935 33.521064 33.489921 33.458122 33.425184 33.391765 33.357367 33.322684 33.287208 33.251662 33.215533 33.179567 33.143249 33.107339 33.071324 33.035972 33.000775 32.966498 32.932643 32.899967 32.867982 32.837427 32.807827 32.779901 32.753187 32.728373 32.705017 32.683769 32.664207 32.646941 32.631567 32.618654 32.607816 32.599577 32.593571 32.590274 32.589340 32.591196 32.595515 32.602677 32.612372 32.624929 32.640058 32.658040 32.678599 32.701970 32.727891 32.756551 32.787701 32.821486 32.857668 32.896350 32.937303 32.980591 33.025993 33.073534 33.123002 33.174388 33.227484 33.282251 33.338486 33.396120 33.454959 33.514908 33.575778 33.637452 33.699748 33.762531 33.825628 33.888889
34.266667 34.191247 34.116027 34.041192 33.966955 33.893479 33.820991 33.749629 33.679631 33.611107 33.544302 33.479295 33.416340 33.355479 33.296974 33.240828 33.187311 33.136382 33.088322 33.043042 33.000833 32.961557 32.925517 32.892523 32.862889 32.836373 32.813303 32.793379 32.776949 32.763652 32.753855 32.747137 32.743887 32.743621 32.746751 32.752733 32.762001 32.773950 32.789038 32.806604 32.827126 32.849889 32.875395 32.902875 32.932855 32.964520 32.998415 33.033686 33.070896 33.109160 33.149056 33.189674 33.231608 33.273932 33.317250 33.360632 33.404688 33.448493 33.492661 33.536281 33.579967 33.622830 33.665482 33.707064 33.748181 33.788012 33.827149 33.864817 33.901591 33.936748 33.970837 34.003194 34.034338 34.063664 34.091658 34.117779 34.142471 34.165258 34.186538 34.205902 34.223697 34.239582 34.253847 34.266219 34.276928 34.285770 34.292912 34.298217 34.301785 34.303550 34.303544 34.301768 34.298187 34.292870 34.285715 34.276858 34.266132 34.253741 34.239456 34.223547 34.205725 34.186330 34.165015 34.142189 34.117451 34.091279 34.063226 34.033833 34.002613 33.970172 33.935986 33.900721 33.863825 33.826020 33.786730 33.746728 33.705421 33.663627 33.620740 33.577617 33.533642 33.489706 33.445189 33.401001 33.356525 33.312686 33.268868 33.226001 33.183478 33.142221 33.101635 33.062628 33.024619 32.988491 32.953679 32.921034 32.890011 32.861422 32.834742 32.810738 32.788907 32.769965 32.753432 32.739972 32.729128 32.721506 32.716674 32.715179 32.716612 32.721461 32.729340 32.740677 32.755110 32.773005 32.794020 32.818466 32.846017 32.876928 32.910890 32.948104 32.988275 33.031552 33.077653 33.126676 33.178352 33.232731 33.289554 33.348828 33.410300 33.473939 33.539499 33.606914 33.675942 33.746487 33.818315 33.891299 33.965214 34.039910 34.115170 34.190824 34.266667
34.644444 34.556563 34.468906 34.381720 34.295206 34.209624 34.125152 34.042063 33.960501 33.880752 33.802927 33.727318 33.653999 33.583272 33.515164 33.449989 33.387726 33.328697 33.272829 33.220457 33.171450 33.126157 33.084387 33.046504 33.012253 32.982016 32.955471 32.933021 32.914275 32.899657 32.888706 32.881870 32.878614 32.879414 32.883662 32.891859 32.903328 32.918595 32.936913 32.958836 32.983551 33.011635 33.042214 33.075892 33.111736 33.150374 33.190823 33.233733 33.278077 33.324526 33.372021 33.421250 33.471128 33.522359 33.573847 33.626306 33.678638 33.731565 33.783999 33.836665 33.888498 33.940220 33.990798 34.040948 34.089678 34.137693 34.184052 34.229441 34.272978 34.315323 34.355660 34.394619 34.431452 34.466751 34.499842 34.531273 34.560446 34.587858 34.612989 34.636278 34.657285 34.676386 34.693220 34.708094 34.720729 34.731358 34.739782 34.746159 34.750368 34.752489 34.752482 34.750348 34.746125 34.739734 34.731294 34.720647 34.707993 34.693097 34.676239 34.657110 34.636072 34.612747 34.587575 34.560117 34.530890 34.499399 34.466239 34.430863 34.393942 34.354884 34.314435 34.271962 34.228284 34.182735 34.136198 34.087983 34.039030 33.988633 33.937781 33.885756 33.833587 33.780551 33.727710 33.674337 33.621516 33.568522 33.516452 33.464587 33.414020 33.364047 33.315748 33.268431 33.223154 33.179245 33.137726 33.097945 33.060884 33.025913 32.993964 32.964431 32.938190 32.914661 32.894658 32.877629 32.864321 32.854210 32.847976 32.845122 32.846258 32.850913 32.859628 32.871960 32.888375 32.908458 32.932607 32.960428 32.992251 33.027703 33.067051 33.109939 33.156569 33.206605 33.260189 33.316996 33.377114 33.440229 33.506376 33.575253 33.646846 33.720861 33.797240 33.875697 33.956134 34.038274 34.121985 34.206996 34.293146 34.380174 34.467892 34.556053 34.644444
35.022222 34.921923 34.821894 34.722383 34.623679 34.526003 34.429660 34.334838 34.241856 34.150864 34.062195 33.975955 33.892487 33.811851 33.734401 33.660141 33.589440 33.522244 33.458932 33.399389 33.344009 33.292608 33.245600 33.202726 33.164420 33.130351 33.100971 33.075872 33.055532 33.039460 33.028162 33.021063 33.018698 33.020409 33.026759 33.037009 33.051751 33.070164 33.092872 33.118972 33.149120 33.182337 33.219309 33.258987 33.302084 33.347488 33.395939 33.446272 33.499248 33.553659 33.610287 33.667891 33.727271 33.787165 33.848389 33.909670 33.971836 34.033621 34.095858 34.157299 34.218778 34.279079 34.339033 34.397465 34.455196 34.511108 34.566002 34.618823 34.670350 34.719601 34.767320 34.812605 34.856161 34.897168 34.936285 34.972779 35.007253 35.039064 35.068752 35.095766 35.120577 35.142723 35.162601 35.179841 35.194757 35.207074 35.217018 35.224405 35.229374 35.231831 35.231824 35.229351 35.224367 35.216962 35.207000 35.194664 35.179725 35.162460 35.142555 35.120377 35.095531 35.068476 35.038740 35.006876 34.972342 34.935779 34.896584 34.855488 34.811831 34.766433 34.718585 34.669190 34.617500 34.564496 34.509399 34.453259 34.395274 34.336559 34.276292 34.215644 34.153781 34.091918 34.029216 33.966921 33.904195 33.842303 33.780414 33.719796 33.659629 33.601174 33.543626 33.488224 33.434183 33.382707 33.333033 33.286322 33.241835 33.200680 33.162142 33.127270 33.095377 33.067441 33.042808 33.022381 33.005537 32.993101 32.984481 32.980422 32.980365 32.984972 32.993714 33.007174 33.024851 33.047246 33.073887 33.105196 33.140727 33.180824 33.225065 33.273718 33.326383 33.383259 33.443961 33.508621 33.576871 33.648780 33.723992 33.802519 33.884016 33.968441 34.055460 34.144983 34.236684 34.330431 34.425908 34.522946 34.621240 34.720585 34.820693 34.921330 35.022222
35.400000 35.287345 35.174984 35.063235 34.952363 34.842707 34.734496 34.628088 34.523673 34.421623 34.322081 34.225435 34.131775 34.041503 33.954652 33.871636 33.792426 33.717450 33.646609 33.580349 33.518498 33.461518 33.409158 33.361903 33.319417 33.282209 33.249857 33.222895 33.200811 33.184168 33.172361 33.165983 33.164334 33.168042 33.176311 33.189801 33.207623 33.230472 33.257364 33.289030 33.324397 33.364228 33.407368 33.454612 33.504728 33.558540 33.614750 33.674209 33.735563 33.799689 33.865185 33.932952 34.001558 34.071920 34.142591 34.214501 34.286202 34.358634 34.430363 34.502333 34.573139 34.643724 34.712725 34.781078 34.847477 34.912842 34.975936 35.037655 35.096840 35.154357 35.209132 35.261992 35.311956 35.359802 35.404647 35.447210 35.486708 35.523796 35.557793 35.589277 35.617675 35.643479 35.666221 35.686304 35.703364 35.717709 35.729080 35.737683 35.743363 35.746225 35.746217 35.743338 35.737639 35.729017 35.717627 35.703259 35.686174 35.666063 35.643290 35.617450 35.589012 35.557482 35.523432 35.486285 35.446718 35.404078 35.359145 35.311199 35.261122 35.208133 35.153214 35.095534 35.036167 34.974242 34.910920 34.845298 34.778613 34.709942 34.640589 34.569613 34.498376 34.425930 34.353678 34.280672 34.208342 34.135745 34.064325 33.993148 33.923658 33.854933 33.788402 33.723162 33.660609 33.599863 33.542278 33.486996 33.435316 33.386410 33.341509 33.299816 33.262486 33.228755 33.199697 33.174582 33.154396 33.138445 33.127624 33.121275 33.120199 33.123773 33.132706 33.146410 33.165500 33.189419 33.218693 33.252795 33.292160 33.336293 33.385540 33.439430 33.498230 33.561490 33.629397 33.701522 33.777979 33.858353 33.942691 34.030593 34.122042 34.216650 34.314344 34.414746 34.517732 34.622936 34.730188 34.839133 34.949561 35.061134 35.173605 35.286652 35.400000
35.777778 35.652825 35.528216 35.404264 35.281337 35.159713 35.039784 34.921783 34.806122 34.692988 34.582807 34.475712 34.372145 34.272177 34.176268 34.084419 33.997107 33.914259 33.836369 33.763285 33.695521 33.632839 33.575775 33.524000 33.478076 33.437578 33.403096 33.374106 33.351227 33.333833 33.322579 33.316729 33.316975 33.322474 33.333956 33.350470 33.372783 33.399839 33.432442 33.469433 33.511655 33.557849 33.608894 33.663442 33.722405 33.784352 33.850227 33.918531 33.990233 34.063778 34.140161 34.217783 34.297661 34.378170 34.460346 34.542550 34.625833 34.708566 34.791804 34.873945 34.956045 35.036544 35.116494 35.194390 35.271274 35.345711 35.418721 35.488955 35.557402 35.622807 35.686121 35.746188 35.803911 35.858242 35.910026 35.958326 36.003916 36.045978 36.085203 36.120890 36.153642 36.182877 36.209099 36.231842 36.251509 36.267749 36.280854 36.290592 36.297138 36.300377 36.300368 36.297110 36.290543 36.280785 36.267657 36.251392 36.231698 36.208923 36.182666 36.153393 36.120595 36.084857 36.045574 36.003446 35.957780 35.909393 35.857512 35.803069 35.745221 35.685012 35.621538 35.555952 35.487301 35.416840 35.343574 35.268853 35.191652 35.113403 35.033061 34.952128 34.869548 34.786879 34.703059 34.619689 34.535707 34.452739 34.369731 34.288317 34.207455 34.128770 34.051237 33.976454 33.903419 33.833687 33.766283 33.702704 33.642003 33.585608 33.532606 33.484343 33.439940 33.400655 33.365645 33.336072 33.311132 33.291885 33.277567 33.269133 33.265859 33.268595 33.276656 33.290785 33.310336 33.335948 33.367009 33.404058 33.446516 33.494823 33.548429 33.607681 33.672056 33.741809 33.816442 33.896125 33.980381 34.069300 34.162421 34.259761 34.360877 34.465717 34.573850 34.685166 34.799245 34.915923 35.034796 35.155649 35.278094 35.401874 35.526619 35.652037 35.777778
36.155556 36.018384 35.881578 35.745532 35.610576 35.477132 35.345486 35.216082 35.089155 34.965173 34.844313 34.727059 34.613525 34.504214 34.399168 34.298908 34.203396 34.113175 34.028121 33.948798 33.874989 33.807283 33.745366 33.689852 33.640324 33.597427 33.560633 33.530622 33.506752 33.489740 33.478825 33.474764 33.476678 33.485361 33.499816 33.520878 33.547428 33.580346 33.618394 33.662492 33.711290 33.765747 33.824408 33.888269 33.955777 34.027965 34.103192 34.182524 34.264249 34.349461 34.436391 34.526159 34.616957 34.709925 34.803236 34.898047 34.992529 35.087850 35.182200 35.276754 35.369738 35.462327 35.552804 35.642333 35.729271 35.814764 35.897258 35.977872 36.055150 36.130175 36.201602 36.270463 36.335534 36.397787 36.456119 36.511433 36.562754 36.610901 36.655028 36.695861 36.732686 36.766124 36.795592 36.821599 36.843691 36.862257 36.876974 36.888105 36.895456 36.899158 36.899147 36.895424 36.888052 36.876898 36.862156 36.843562 36.821440 36.795400 36.765893 36.732412 36.695537 36.654648 36.610456 36.562237 36.510832 36.455424 36.396984 36.334609 36.269400 36.200382 36.128779 36.053555 35.976054 35.895189 35.812415 35.726608 35.639321 35.549403 35.458496 35.365430 35.271918 35.176783 35.081793 34.985770 34.890520 34.794869 34.700642 34.606678 34.514799 34.423861 34.335666 34.249092 34.165902 34.084998 34.008089 33.934106 33.864686 33.798793 33.737980 33.681247 33.630050 33.583428 33.542734 33.507047 33.477607 33.453539 33.435965 33.424054 33.418810 33.419446 33.426848 33.440270 33.460480 33.486775 33.519808 33.558912 33.604629 33.656329 33.714445 33.778379 33.848463 33.924125 34.005601 34.092344 34.184499 34.281540 34.383526 34.489953 34.600800 34.715579 34.834199 34.956189 35.081392 35.209351 35.339856 35.472465 35.606916 35.742788 35.879775 36.017479 36.155556
36.533333 36.384014 36.235115 36.087018 35.940176 35.794925 35.651748 35.510929 35.372973 35.238109 35.106862 34.979392 34.856248 34.737515 34.623762 34.514991 34.411791 34.314077 34.222461 34.136758 34.057607 33.984718 33.918759 33.859329 33.807127 33.761634 33.723587 33.692341 33.668673 33.651810 33.642571 33.640050 33.645111 33.656715 33.675769 33.701100 33.733663 33.772150 33.817561 33.868460 33.925890 33.988293 34.056752 34.129595 34.207946 34.290031 34.377006 34.467010 34.561234 34.657741 34.757753 34.859281 34.963568 35.068594 35.175622 35.282620 35.390867 35.498340 35.606330 35.712844 35.819176 35.923389 36.026769 36.127453 36.226714 36.322780 36.416900 36.507406 36.595515 36.679677 36.761061 36.838246 36.912342 36.982064 37.048449 37.110352 37.168727 37.222570 37.272738 37.318373 37.360221 37.397570 37.431046 37.460080 37.485170 37.505890 37.522601 37.535019 37.543365 37.547495 37.547484 37.543330 37.534961 37.522517 37.505779 37.485030 37.459907 37.430836 37.397318 37.359922 37.318020 37.272323 37.222086 37.168162 37.109697 37.047691 36.981188 36.911333 36.837086 36.759730 36.678154 36.593775 36.505422 36.414643 36.320217 36.223810 36.124167 36.023060 35.919209 35.814476 35.707569 35.600420 35.491733 35.383494 35.274409 35.166494 35.058467 34.952355 34.846889 34.744084 34.642693 34.544699 34.448877 34.357159 34.268348 34.184306 34.103869 34.028809 33.958002 33.893117 33.833070 33.779418 33.731120 33.689612 33.653898 33.625287 33.602830 33.587706 33.579012 33.577797 33.583205 33.596152 33.615828 33.643022 33.676967 33.718324 33.766369 33.821642 33.883456 33.952233 34.027323 34.109036 34.196752 34.290678 34.390219 34.495486 34.605907 34.721503 34.841723 34.966506 35.095318 35.228025 35.364112 35.503376 35.645322 35.789688 35.935998 36.083939 36.233058 36.382998 36.533333
36.911111 36.749740 36.588809 36.428797 36.270097 36.113222 35.958513 35.806512 35.657500 35.512044 35.370358 35.233031 35.100200 34.972479 34.849917 34.733154 34.622144 34.517550 34.419226 34.327864 34.243202 34.165966 34.095777 34.033392 33.978307 33.931317 33.891785 33.860550 33.836833 33.821518 33.813684 33.814262 33.822183 33.838427 33.861777 33.893262 33.931517 33.977619 34.030060 34.089962 34.155676 34.228372 34.306269 34.390579 34.479399 34.573981 34.672318 34.775694 34.882014 34.992595 35.105270 35.221386 35.338727 35.458664 35.578955 35.700991 35.822531 35.944977 36.066114 36.187351 36.306521 36.425034 36.540792 36.655198 36.766247 36.875320 36.980523 37.083208 37.181605 37.277023 37.367831 37.455279 37.537884 37.616825 37.690771 37.760818 37.825790 37.886682 37.942479 37.994063 38.040577 38.082776 38.119962 38.152755 38.180614 38.204010 38.222558 38.236579 38.245840 38.250503 38.250491 38.245803 38.236516 38.222468 38.203890 38.180462 38.152568 38.119735 38.082503 38.040252 37.993680 37.942030 37.886157 37.825179 37.760109 37.689950 37.615877 37.536791 37.454023 37.366390 37.275374 37.179720 37.081059 36.978078 36.872544 36.763100 36.651639 36.536774 36.420506 36.301430 36.181637 36.059712 35.937820 35.814544 35.692096 35.569068 35.447694 35.326580 35.207962 35.090463 34.976293 34.864102 34.756051 34.650816 34.550493 34.453789 34.362709 34.275998 34.195558 34.120172 34.051622 33.988739 33.933171 33.883796 33.842127 33.807090 33.780054 33.759996 33.748141 33.743516 33.747201 33.758273 33.777668 33.804514 33.839604 33.882114 33.932699 33.990581 34.056284 34.129068 34.209334 34.296378 34.390483 34.490976 34.598031 34.711004 34.829965 34.954295 35.083972 35.218398 35.357464 35.500595 35.647604 35.797936 35.951338 36.107275 36.265433 36.425301 36.586513 36.748587 36.911111
37.288889 37.115552 36.942715 36.770835 36.600450 36.431964 36.265951 36.102751 35.942969 35.786877 35.635106 35.487848 35.345764 35.208955 35.078108 34.953226 34.835026 34.723403 34.619103 34.521904 34.432587 34.350804 34.277371 34.211808 34.154972 34.106239 34.066511 34.035016 34.012703 33.998645 33.993842 33.997207 34.009791 34.030346 34.059976 34.097268 34.143378 34.196734 34.258541 34.327069 34.403573 34.486172 34.576168 34.671538 34.773628 34.880290 34.992907 35.109223 35.230656 35.354860 35.483286 35.613523 35.747047 35.881406 36.018101 36.154667 36.292619 36.429508 36.566862 36.702271 36.837267 36.969509 37.100526 37.228068 37.353649 37.475132 37.594007 37.708268 37.819367 37.925443 38.027895 38.125021 38.218152 38.305750 38.389063 38.466724 38.539879 38.607336 38.670124 38.727227 38.779542 38.826226 38.868032 38.904291 38.935599 38.961457 38.982298 38.997789 39.008194 39.013345 39.013332 39.008154 38.997721 38.982201 38.961328 38.935436 38.904089 38.867787 38.825932 38.779193 38.726815 38.669641 38.606771 38.539221 38.465960 38.388178 38.304729 38.216975 38.123669 38.026343 37.923667 37.817337 37.705955 37.591375 37.472143 37.350261 37.224236 37.096200 36.964634 36.831784 36.696117 36.559968 36.421801 36.284019 36.145088 36.007453 35.869593 35.733966 35.599066 35.467340 35.337305 35.211366 35.088069 34.969753 34.854995 34.746049 34.641525 34.543569 34.450834 34.365339 34.285781 34.214043 34.148867 34.091988 34.042201 34.001084 33.967486 33.942825 33.926004 33.918282 33.918616 33.928107 33.945766 33.972536 34.007481 34.051393 34.103385 34.164102 34.232705 34.309699 34.394286 34.486839 34.586600 34.693816 34.807762 34.928572 35.055549 35.188721 35.327418 35.471569 35.620530 35.774141 35.931782 36.093214 36.257840 36.425352 36.595178 36.766948 36.940119 37.114269 37.288889
37.666667 37.481477 37.296806 37.113220 36.931183 36.751303 36.573982 36.399861 36.229274 36.062894 35.900972 35.744214 35.592779 35.447402 35.308143 35.175767 35.050222 34.932307 34.821848 34.719680 34.625496 34.540171 34.463258 34.395676 34.336825 34.287672 34.247459 34.217204 34.195983 34.184866 34.182759 34.190787 34.207679 34.234616 34.270151 34.315519 34.369093 34.432165 34.502931 34.582737 34.669609 34.764940 34.866598 34.976021 35.090930 35.212806 35.339238 35.471746 35.607809 35.748981 35.892658 36.040420 36.189606 36.341822 36.494377 36.648899 36.802698 36.957416 37.110395 37.263288 37.413496 37.562675 37.708315 37.852063 37.991525 38.128327 38.260212 38.388774 38.511910 38.631166 38.744607 38.853716 38.956736 39.055068 39.147140 39.234256 39.315030 39.390650 39.459922 39.523897 39.581570 39.633846 39.679906 39.720490 39.754966 39.783899 39.806840 39.824170 39.835620 39.841383 39.841369 39.835578 39.824097 39.806736 39.783761 39.754791 39.720274 39.679643 39.633531 39.581196 39.523455 39.459404 39.390045 39.314326 39.233438 39.146193 39.053974 38.955476 38.852267 38.742945 38.629264 38.509737 38.386296 38.257392 38.125125 37.987895 37.847957 37.703680 37.557452 37.407623 37.256695 37.103010 36.949159 36.793484 36.638637 36.482969 36.329165 36.175591 36.024931 35.875573 35.730173 35.587142 35.449081 35.314430 35.185705 35.061381 34.943865 34.831672 34.727079 34.628645 34.538502 34.455256 34.380881 34.314034 34.256521 34.207055 34.167269 34.135932 34.114502 34.101807 34.099127 34.105352 34.121588 34.146782 34.181873 34.225862 34.279526 34.341919 34.413662 34.493858 34.582980 34.680175 34.785779 34.898977 35.019976 35.147996 35.283123 35.424612 35.572436 35.725879 35.884813 36.048551 36.216875 36.389121 36.564994 36.743857 36.925341 37.108842 37.293930 37.480033 37.666667