<?xml version="1.0"?>
<VTKFile type="ImageData" version="0.1" byte_order="LittleEndian">
  <ImageData WholeExtent="0 180 0 180 0 0" Origin="0.0 0.0 0.0" Spacing="0.05 0.05 1">
    <Piece Extent="0 180 0 180 0 0">
      <PointData Scalars="Temperature">
        <DataArray type="Float32" Name="Temperature" format="ascii">
32.000000 32.000000 32.000000 32.000000 32.000000 32.000000 32.000000 32.000000 32.000000 32.000000 32.000000 32.000000 32.000000 32.000000 32.000000 32.000000 32.000000 32.000000 32.000000 32.000000 32.000000 32.000000 32.000000 32.000000 32.000000 32.000000 32.000000 32.000000 32.000000 32.000000 32.000000 32.000000 32.000000 32.000000 32.000000 32.000000 32.000000 32.000000 32.000000 32.000000 32.000000 32.000000 32.000000 32.000000 32.000000 32.000000 32.000000 32.000000 32.000000 32.000000 32.000000 32.000000 32.000000 32.000000 32.000000 32.000000 32.000000 32.000000 32.000000 32.000000 32.000000 32.000000 32.000000 32.000000 32.000000 32.000000 32.000000 32.000000 32.000000 32.000000 32.000000 32.000000 32.000000 32.000000 32.000000 32.000000 32.000000 32.000000 32.000000 32.000000 32.000000 32.000000 32.000000 32.000000 32.000000 32.000000 32.000000 32.000000 32.000000 32.000000 32.000000 32.000000 32.000000 32.000000 32.000000 32.000000 32.000000 32.000000 32.000000 32.000000 32.000000 32.000000 32.000000 32.000000 32.000000 32.000000 32.000000 32.000000 32.000000 32.000000 32.000000 32.000000 32.000000 32.000000 32.000000 32.000000 32.000000 32.000000 32.000000 32.000000 32.000000 32.000000 32.000000 32.000000 32.000000 32.000000 32.000000 32.000000 32.000000 32.000000 32.000000 32.000000 32.000000 32.000000 32.000000 32.000000 32.000000 32.000000 32.000000 32.000000 32.000000 32.000000 32.000000 32.000000 32.000000 32.000000 32.000000 32.000000 32.000000 32.000000 32.000000 32.000000 32.000000 32.000000 32.000000 32.000000 32.000000 32.000000 32.000000 32.000000 32.000000 32.000000 32.000000 32.000000 32.000000 32.000000 32.000000 32.000000 32.000000 32.000000 32.000000 32.000000 32.000000 32.000000 32.000000 32.000000 32.000000 32.000000 32.000000 32.000000 32.000000
32.377778 32.364779 32.351812 32.338912 32.326108 32.313436 32.300922 32.288604 32.276503 32.264658 32.253087 32.241827 32.230891 32.220319 32.210117 32.200324 32.190940 32.182007 32.173515 32.165507 32.157967 32.150939 32.144399 32.138391 32.132883 32.127922 32.123467 32.119566 32.116170 32.113330 32.110986 32.109195 32.107885 32.107117 32.106811 32.107029 32.107684 32.108842 32.110405 32.112445 32.114853 32.117706 32.120889 32.124480 32.128357 32.132602 32.137087 32.141898 32.146899 32.152181 32.157604 32.163260 32.169006 32.174939 32.180912 32.187023 32.193126 32.199320 32.205462 32.211649 32.217740 32.223834 32.229794 32.235718 32.241473 32.247155 32.252640 32.258021 32.263179 32.268206 32.272991 32.277621 32.281995 32.286193 32.290126 32.293867 32.297337 32.300601 32.303591 32.306366 32.308867 32.311143 32.313148 32.314921 32.316426 32.317693 32.318696 32.319457 32.319958 32.320211 32.320210 32.319956 32.319453 32.318691 32.317686 32.316416 32.314910 32.313134 32.311127 32.308847 32.306343 32.303564 32.300569 32.297298 32.293823 32.290074 32.286133 32.281925 32.277540 32.272898 32.268098 32.263056 32.257879 32.252478 32.246970 32.241262 32.235478 32.229523 32.223527 32.217393 32.211257 32.205021 32.198826 32.192572 32.186403 32.180220 32.174168 32.168149 32.162309 32.156550 32.151017 32.145615 32.140485 32.135535 32.130900 32.126494 32.122446 32.118673 32.115296 32.112237 32.109611 32.107342 32.105538 32.104126 32.103206 32.102710 32.102729 32.103198 32.104198 32.105671 32.107687 32.110191 32.113244 32.116795 32.120895 32.125498 32.130645 32.136290 32.142468 32.149136 32.156319 32.163975 32.172122 32.180719 32.189777 32.199256 32.209159 32.219446 32.230115 32.241127 32.252473 32.264113 32.276034 32.288197 32.300583 32.313154 32.325887 32.338747 32.351704 32.364724 32.377778
32.755556 32.729563 32.703637 32.677840 32.652242 32.626899 32.601886 32.577249 32.553065 32.529373 32.506251 32.483729 32.461884 32.440735 32.420362 32.400770 32.382041 32.364166 32.347228 32.331203 32.316177 32.302110 32.289092 32.277064 32.266120 32.256185 32.247356 32.239540 32.232840 32.227145 32.222562 32.218961 32.216458 32.214903 32.214419 32.214836 32.216286 32.218581 32.221859 32.225915 32.230896 32.236579 32.243118 32.250275 32.258213 32.266678 32.275840 32.285434 32.295636 32.306171 32.317221 32.328503 32.340205 32.352038 32.364194 32.376383 32.388800 32.401154 32.413644 32.425982 32.438367 32.450519 32.462636 32.474445 32.486143 32.497471 32.508619 32.519343 32.529828 32.539844 32.549569 32.558793 32.567682 32.576045 32.584037 32.591488 32.598538 32.605039 32.611115 32.616640 32.621721 32.626253 32.630326 32.633855 32.636913 32.639435 32.641475 32.642988 32.644007 32.644510 32.644509 32.644002 32.642980 32.641464 32.639421 32.636895 32.633832 32.630298 32.626219 32.621681 32.616592 32.611060 32.604973 32.598462 32.591398 32.583933 32.575924 32.567542 32.558631 32.549382 32.539629 32.529581 32.519060 32.508296 32.497102 32.485723 32.473967 32.462093 32.449905 32.437673 32.425199 32.412763 32.400165 32.387691 32.375143 32.362810 32.350496 32.338491 32.326601 32.315115 32.303843 32.293068 32.282607 32.272735 32.263274 32.254488 32.246208 32.238686 32.231759 32.225665 32.220248 32.215733 32.211971 32.209170 32.207189 32.206218 32.206126 32.207084 32.208968 32.211931 32.215858 32.220882 32.226895 32.234012 32.242132 32.251350 32.261571 32.272875 32.285169 32.298515 32.312827 32.328149 32.344397 32.361600 32.379677 32.398642 32.418415 32.438996 32.460307 32.482335 32.505003 32.528287 32.552110 32.576438 32.601196 32.626339 32.651794 32.677511 32.703417 32.729454 32.755556
33.133333 33.094360 33.055483 33.016807 32.978420 32.940431 32.902918 32.865994 32.829724 32.794225 32.759547 32.725810 32.693047 32.661380 32.630825 32.601505 32.573416 32.546683 32.521282 32.497339 32.474807 32.453818 32.434298 32.416385 32.399979 32.385223 32.371992 32.360437 32.350402 32.342049 32.335193 32.330004 32.326272 32.324175 32.323473 32.324359 32.326562 32.330288 32.335237 32.341627 32.349134 32.357985 32.367832 32.378915 32.390862 32.403925 32.417710 32.432481 32.447828 32.464022 32.480640 32.497963 32.515558 32.533712 32.551986 32.570674 32.589337 32.608270 32.627038 32.645939 32.664546 32.683156 32.701355 32.719437 32.737003 32.754344 32.771080 32.787493 32.803229 32.818558 32.833150 32.847264 32.860598 32.873394 32.885379 32.896779 32.907349 32.917294 32.926403 32.934854 32.942469 32.949401 32.955504 32.960903 32.965484 32.969342 32.972397 32.974711 32.976238 32.977008 32.977006 32.976231 32.974700 32.972380 32.969321 32.965456 32.960869 32.955462 32.949351 32.942409 32.934783 32.926319 32.917196 32.907234 32.896644 32.885223 32.873212 32.860387 32.847021 32.832869 32.818235 32.802858 32.787069 32.770594 32.753789 32.736372 32.718719 32.700541 32.682235 32.663504 32.644765 32.625716 32.606786 32.587674 32.568814 32.549910 32.531399 32.512986 32.495110 32.477480 32.460530 32.443976 32.428241 32.413053 32.398819 32.385276 32.372815 32.361184 32.350755 32.341287 32.333127 32.326048 32.320374 32.315888 32.312889 32.311173 32.311010 32.312210 32.315015 32.319247 32.325119 32.332465 32.341470 32.351977 32.364144 32.377824 32.393146 32.409972 32.428406 32.448315 32.469776 32.492664 32.517031 32.542755 32.569867 32.598246 32.627902 32.658717 32.690680 32.723675 32.757674 32.792561 32.828292 32.864752 32.901883 32.939573 32.977749 33.016304 33.055153 33.094194 33.133333
33.511111 33.459173 33.407369 33.355824 33.304680 33.254048 33.204077 33.154864 33.106561 33.059247 33.013080 32.968116 32.924516 32.882316 32.841676 32.802608 32.765275 32.729661 32.695934 32.664045 32.634169 32.606224 32.580392 32.556556 32.534905 32.515289 32.497904 32.482563 32.469475 32.458414 32.449601 32.442771 32.438160 32.435465 32.434934 32.436227 32.439609 32.444699 32.451781 32.460436 32.470963 32.482911 32.496594 32.511526 32.528040 32.545620 32.564611 32.584475 32.605570 32.627335 32.650142 32.673414 32.697532 32.721911 32.746938 32.772026 32.797567 32.822975 32.848647 32.874004 32.899444 32.924403 32.949276 32.973518 32.997520 33.020760 33.043622 33.065613 33.087103 33.107633 33.127558 33.146455 33.164659 33.181785 33.198146 33.213397 33.227825 33.241127 33.253558 33.264858 33.275250 33.284517 33.292845 33.300061 33.306312 33.311467 33.315635 33.318728 33.320810 33.321839 33.321837 33.320802 33.318713 33.315613 33.311439 33.306275 33.300015 33.292790 33.284450 33.275170 33.264763 33.253446 33.240995 33.227672 33.213218 33.197937 33.181542 33.164378 33.146130 33.127184 33.107202 33.086609 33.065046 33.042975 33.020021 32.996679 32.972561 32.948191 32.923174 32.898056 32.872438 32.846885 32.820996 32.795350 32.769546 32.744170 32.718826 32.694103 32.669609 32.645928 32.622679 32.600434 32.578822 32.558401 32.538812 32.520591 32.503393 32.487730 32.473271 32.460501 32.449102 32.439529 32.431481 32.425376 32.420933 32.418533 32.417912 32.419412 32.422786 32.428340 32.435842 32.445559 32.457274 32.471217 32.487183 32.505366 32.525572 32.547959 32.572343 32.598847 32.627296 32.657779 32.690127 32.724397 32.760426 32.798241 32.837682 32.878747 32.921282 32.965257 33.010520 33.057019 33.104603 33.153201 33.202662 33.252898 33.303762 33.355149 33.406918 33.458951 33.511111
33.888889 33.824012 33.759298 33.694921 33.631028 33.567802 33.505375 33.443935 33.383594 33.324545 33.266875 33.210784 33.156329 33.103713 33.052965 33.004291 32.957686 32.913360 32.871272 32.831638 32.794376 32.759711 32.727519 32.698032 32.671084 32.646918 32.625322 32.606551 32.590346 32.576977 32.566137 32.558114 32.552551 32.549752 32.549313 32.551558 32.556033 32.563084 32.572207 32.583769 32.597222 32.612953 32.630371 32.649882 32.670856 32.693719 32.717806 32.743560 32.770287 32.798446 32.827320 32.857381 32.887897 32.919350 32.950999 32.983338 33.015621 33.048349 33.080784 33.113427 33.145555 33.177671 33.209069 33.240249 33.270535 33.300417 33.329252 33.357518 33.384612 33.410993 33.436103 33.460380 33.483311 33.505309 33.525911 33.545496 33.563657 33.580736 33.596377 33.610884 33.623956 33.635852 33.646324 33.655586 33.663445 33.670062 33.675301 33.679270 33.681887 33.683208 33.683204 33.681876 33.679251 33.675274 33.670026 33.663399 33.655529 33.646255 33.635768 33.623856 33.610766 33.596237 33.580572 33.563465 33.545272 33.525650 33.505006 33.482961 33.459974 33.435636 33.410455 33.383994 33.356810 33.328443 33.299493 33.269483 33.239053 33.207712 33.176134 33.143820 33.111470 33.078582 33.045876 33.012850 32.980238 32.947539 32.915495 32.883610 32.852625 32.822054 32.792626 32.763868 32.736494 32.710044 32.685209 32.661545 32.639715 32.619292 32.600904 32.584144 32.569602 32.556892 32.546561 32.538243 32.532442 32.528812 32.527811 32.529115 32.533133 32.539562 32.548763 32.560451 32.574940 32.591964 32.611788 32.634161 32.659304 32.686979 32.717362 32.750227 32.785705 32.823582 32.863947 32.906592 32.951570 32.998676 33.047928 33.099125 33.152250 33.207107 33.263648 33.321680 33.381126 33.441797 33.503591 33.566323 33.629871 33.694053 33.758730 33.823726 33.888889
34.266667 34.188879 34.111294 34.034099 33.957511 33.881698 33.806884 33.733216 33.660925 33.590130 33.521069 33.453830 33.388656 33.325598 33.264906 33.206593 33.150912 33.097834 33.047618 33.000190 32.955816 32.914374 32.876141 32.840941 32.809062 32.780277 32.754888 32.732609 32.713762 32.698002 32.685670 32.676362 32.670440 32.667441 32.667749 32.670843 32.677129 32.686029 32.697973 32.712325 32.729542 32.748933 32.770978 32.794938 32.821315 32.849325 32.879494 32.910995 32.944376 32.978779 33.014769 33.051463 33.089441 33.127807 33.167151 33.206571 33.246667 33.286539 33.326793 33.366541 33.406390 33.445475 33.484399 33.522327 33.559855 33.596184 33.631900 33.666248 33.699795 33.731838 33.762919 33.792390 33.820766 33.847458 33.872945 33.896700 33.919161 33.939866 33.959208 33.976789 33.992950 34.007361 34.020307 34.031524 34.041237 34.049249 34.055724 34.060530 34.063765 34.065363 34.065359 34.063751 34.060507 34.055692 34.049206 34.041182 34.031455 34.020224 34.007261 33.992830 33.976647 33.959040 33.939669 33.918931 33.896431 33.872632 33.847095 33.820345 33.791904 33.762358 33.731192 33.699054 33.665399 33.630929 33.595075 33.558592 33.520891 33.482771 33.443631 33.404308 33.364193 33.324150 33.283571 33.243341 33.202851 33.162998 33.123180 33.084298 33.045756 33.008449 32.971795 32.936673 32.902516 32.870179 32.839114 32.810142 32.782737 32.757683 32.734473 32.713848 32.695325 32.679595 32.666201 32.655781 32.647903 32.643148 32.641112 32.642318 32.646385 32.653780 32.664145 32.677889 32.694677 32.714860 32.738121 32.764756 32.794469 32.827496 32.863558 32.902840 32.945074 32.990394 33.038542 33.089606 33.143334 33.199769 33.258665 33.320023 33.383602 33.449363 33.517071 33.586649 33.657867 33.730618 33.804675 33.879902 33.956078 34.033046 34.110589 34.188531 34.266667
34.644444 34.553785 34.463354 34.373400 34.284130 34.195803 34.108605 34.022803 33.938553 33.856133 33.775662 33.697424 33.621502 33.548185 33.477512 33.409778 33.344974 33.283403 33.225004 33.170089 33.118540 33.070679 33.026332 32.985832 32.948942 32.916013 32.886741 32.861496 32.839908 32.822368 32.808436 32.798527 32.792131 32.789690 32.790622 32.795397 32.803364 32.815021 32.829647 32.847769 32.868604 32.892703 32.919223 32.948744 32.980363 33.014690 33.050770 33.089236 33.129094 33.170997 33.213916 33.258526 33.303774 33.350349 33.397187 33.444988 33.492687 33.540993 33.588848 33.636968 33.684314 33.731600 33.777820 33.823681 33.868217 33.912125 33.954486 33.995980 34.035746 34.074439 34.111262 34.146838 34.180437 34.212646 34.242809 34.271465 34.298034 34.323004 34.345872 34.367070 34.386170 34.403542 34.418836 34.432355 34.443827 34.453483 34.461129 34.466919 34.470739 34.472666 34.472660 34.470723 34.466893 34.461091 34.453433 34.443763 34.432275 34.418739 34.403425 34.386030 34.366904 34.345677 34.322775 34.297765 34.271151 34.242444 34.212223 34.179946 34.146270 34.110608 34.073686 34.034882 33.994989 33.953353 33.910831 33.866744 33.822007 33.775921 33.729450 33.681885 33.634229 33.585766 33.537531 33.488807 33.440648 33.392342 33.344952 33.297773 33.251868 33.206543 33.162848 33.120107 33.079344 33.039903 33.002776 32.967328 32.934510 32.903712 32.875834 32.850294 32.827936 32.808206 32.791889 32.778458 32.768634 32.761922 32.758973 32.759323 32.763555 32.771232 32.782870 32.798058 32.817244 32.840043 32.866834 32.897254 32.931618 32.969583 33.011398 33.056738 33.105792 33.158249 33.214238 33.273458 33.335986 33.401529 33.470110 33.541446 33.615510 33.692025 33.770922 33.851925 33.934929 34.019663 34.105986 34.193632 34.282431 34.372126 34.462520 34.553365 34.644444
35.022222 34.918729 34.815509 34.712816 34.610941 34.510109 34.410626 34.312686 34.216605 34.122542 34.030820 33.941555 33.855080 33.771464 33.691044 33.613839 33.540194 33.470070 33.403822 33.341347 33.283014 33.228653 33.178647 33.132756 33.091379 33.054203 33.021648 32.993325 32.969676 32.950232 32.935464 32.924821 32.918802 32.916776 32.919272 32.925577 32.936252 32.950504 32.968928 32.990651 33.016301 33.044932 33.077202 33.112098 33.150307 33.190754 33.234156 33.279383 33.327177 33.376366 33.427715 33.480016 33.534057 33.588609 33.644473 33.700413 33.757243 33.813730 33.870697 33.926926 33.983244 34.038462 34.093404 34.146923 34.199832 34.251039 34.301338 34.349699 34.396894 34.441963 34.485644 34.527056 34.566897 34.604368 34.640121 34.673439 34.704921 34.733938 34.761027 34.785648 34.808266 34.828435 34.846543 34.862233 34.875814 34.887017 34.896067 34.902784 34.907305 34.909539 34.909534 34.907287 34.902754 34.896023 34.886960 34.875741 34.862142 34.846432 34.828301 34.808107 34.785458 34.760803 34.733676 34.704614 34.673080 34.639703 34.603884 34.566336 34.526407 34.484896 34.441102 34.395906 34.348567 34.300043 34.249561 34.198149 34.145010 34.091233 34.036005 33.980467 33.923795 33.867174 33.809774 33.752809 33.695453 33.638936 33.582440 33.527199 33.472407 33.419288 33.367054 33.316906 33.268077 33.221737 33.177139 33.135410 33.095831 33.059475 33.025653 32.995376 32.967985 32.944425 32.924069 32.907788 32.894991 32.886472 32.881672 32.881307 32.884854 32.892946 32.905093 32.921849 32.942753 32.968282 32.998001 33.032310 33.070800 33.113795 33.160908 33.212390 33.267873 33.327538 33.391033 33.458474 33.529518 33.604222 33.682252 33.763608 33.847963 33.935263 34.025189 34.117640 34.212300 34.309028 34.407515 34.507580 34.608923 34.711333 34.814518 34.918240 35.022222
35.400000 35.283727 35.167752 35.052397 34.937933 34.824698 34.712931 34.602984 34.495059 34.389517 34.286517 34.186429 34.089360 33.995692 33.905474 33.819096 33.736545 33.658222 33.584047 33.514432 33.449225 33.388853 33.333086 33.282370 33.236391 33.195620 33.159656 33.128993 33.103145 33.082633 33.066879 33.056436 33.050633 33.050058 33.053946 33.062919 33.076120 33.094210 33.116238 33.142902 33.173166 33.207761 33.245570 33.287361 33.331938 33.380103 33.430595 33.484245 33.539734 33.597922 33.657447 33.719191 33.781761 33.846059 33.910674 33.976526 34.042200 34.108627 34.174406 34.240472 34.305452 34.370282 34.433629 34.496421 34.557381 34.617422 34.675334 34.732008 34.786308 34.839095 34.889318 34.937798 34.983576 35.027423 35.068476 35.107448 35.143575 35.177503 35.208571 35.237349 35.263277 35.286845 35.307594 35.325924 35.341479 35.354565 35.364928 35.372773 35.377949 35.380559 35.380552 35.377929 35.372739 35.364879 35.354500 35.341397 35.325821 35.307469 35.286695 35.263098 35.237136 35.208320 35.177208 35.143229 35.107045 35.068007 35.026878 34.982945 34.937069 34.888477 34.838127 34.785196 34.730734 34.673877 34.615759 34.555487 34.494268 34.431187 34.367517 34.302329 34.236950 34.170442 34.104176 34.037211 33.970946 33.904445 33.839120 33.774046 33.710631 33.647968 33.587446 33.528179 33.471526 33.416623 33.364786 33.315179 33.269061 33.225628 33.186073 33.149625 33.117403 33.088672 33.064470 33.044099 33.028510 33.017046 33.010567 33.008453 33.011474 33.019048 33.031853 33.049342 33.072102 33.099621 33.132395 33.169943 33.212674 33.260133 33.312646 33.369780 33.431783 33.498238 33.569318 33.644623 33.724252 33.807818 33.895353 33.986480 34.081169 34.179050 34.280037 34.383769 34.490106 34.598695 34.709352 34.821732 34.935612 35.050657 35.166612 35.283153 35.400000
35.777778 35.648774 35.520118 35.392130 35.265177 35.139548 35.015630 34.893668 34.774066 34.657022 34.542952 34.432002 34.324596 34.220823 34.121116 34.025496 33.934411 33.847807 33.766145 33.689294 33.617729 33.551235 33.490308 33.434641 33.384754 33.340247 33.301666 33.268512 33.241363 33.219616 33.203885 33.193463 33.189000 33.189684 33.196203 33.207642 33.224727 33.246438 33.273544 33.304923 33.341383 33.381706 33.426741 33.475178 33.527903 33.583528 33.642970 33.704772 33.769884 33.836790 33.906469 33.977360 34.050469 34.124205 34.199594 34.275036 34.351570 34.427602 34.504181 34.579738 34.655322 34.729405 34.803033 34.874732 34.945536 35.014042 35.081263 35.145877 35.208868 35.269005 35.327235 35.382425 35.435473 35.485353 35.532902 35.577205 35.619030 35.657576 35.693529 35.726204 35.756200 35.782945 35.806941 35.827733 35.845719 35.860558 35.872538 35.881432 35.887416 35.890374 35.890367 35.887393 35.881395 35.872484 35.860486 35.845628 35.827620 35.806802 35.782778 35.756000 35.725968 35.693250 35.657248 35.618646 35.576757 35.532380 35.484747 35.434772 35.381615 35.326300 35.267930 35.207633 35.144461 35.079644 35.012194 34.943432 34.872340 34.800320 34.726333 34.651852 34.575825 34.499778 34.422657 34.346027 34.268836 34.192673 34.116495 34.041896 33.967849 33.895936 33.825150 33.757046 33.690640 33.627446 33.566508 33.509282 33.454845 33.404583 33.357608 33.315227 33.276590 33.242916 33.213394 33.189148 33.169411 33.155205 33.145805 33.142133 33.143506 33.150741 33.163195 33.181583 33.205303 33.234964 33.270002 33.310927 33.357207 33.409255 33.466568 33.529467 33.597471 33.670816 33.749040 33.832294 33.920135 34.012635 34.109363 34.210319 34.315084 34.423590 34.535428 34.650470 34.768314 34.888780 35.011474 35.136169 35.262482 35.390147 35.518794 35.648121 35.777778
36.155556 36.013891 35.872596 35.732071 35.592652 35.454759 35.318689 35.184880 35.053582 34.925248 34.800072 34.678521 34.560725 34.447164 34.337898 34.233420 34.133713 34.039285 33.950033 33.866483 33.788442 33.716455 33.650232 33.590344 33.536398 33.488992 33.447627 33.412933 33.384300 33.362393 33.346487 33.337289 33.333953 33.337230 33.346157 33.361526 33.382256 33.409187 33.441119 33.478937 33.521332 33.569229 33.621214 33.678255 33.738842 33.803981 33.872076 33.944169 34.018592 34.096421 34.175928 34.258219 34.341526 34.426977 34.512784 34.600095 34.687118 34.775014 34.862009 34.949271 35.035062 35.120549 35.204048 35.286720 35.366952 35.445886 35.521994 35.596394 35.667656 35.736858 35.802680 35.866151 35.926068 35.983401 36.037066 36.087963 36.135134 36.179395 36.219918 36.257422 36.291209 36.321896 36.348912 36.372761 36.393002 36.410019 36.423497 36.433695 36.440425 36.443818 36.443810 36.440401 36.433654 36.423437 36.409940 36.392901 36.372636 36.348759 36.321712 36.290990 36.257162 36.219611 36.179035 36.134712 36.087470 36.036493 35.982735 35.925297 35.865260 35.801652 35.735675 35.666297 35.594837 35.520214 35.443854 35.364637 35.284089 35.201064 35.117170 35.031244 34.944967 34.857166 34.769575 34.681021 34.593276 34.505172 34.418496 34.332096 34.247756 34.164342 34.083617 34.004470 33.928625 33.854999 33.785260 33.718359 33.655889 33.596840 33.542721 33.492560 33.447772 33.407429 33.372839 33.343120 33.319473 33.301059 33.288965 33.282402 33.282338 33.288031 33.300333 33.318545 33.343406 33.374259 33.411727 33.455194 33.505174 33.561083 33.623331 33.691365 33.765493 33.845187 33.930660 34.021406 34.117549 34.218598 34.324593 34.435059 34.549958 34.668827 34.791558 34.917698 35.047075 35.179247 35.313988 35.450865 35.589604 35.729787 35.871098 36.013138 36.155556
36.533333 36.379068 36.225228 36.072201 35.920440 35.770294 35.622238 35.476571 35.333788 35.194132 35.058113 34.925908 34.798044 34.674625 34.556192 34.442766 34.334906 34.232545 34.136258 34.045883 33.962016 33.884391 33.813631 33.749358 33.692226 33.641740 33.598590 33.562159 33.533173 33.510892 33.496083 33.487876 33.487085 33.492708 33.505606 33.524644 33.550733 33.582607 33.621224 33.665193 33.715518 33.770687 33.831750 33.897081 33.967774 34.042101 34.121195 34.203239 34.289405 34.377800 34.469630 34.562947 34.658986 34.755764 34.854537 34.953312 35.053361 35.152698 35.252609 35.351138 35.449573 35.546011 35.641737 35.734917 35.826824 35.915714 36.002834 36.086545 36.168060 36.245855 36.321098 36.392391 36.460841 36.525184 36.586457 36.643532 36.697361 36.746958 36.793176 36.835174 36.873694 36.908036 36.938825 36.965503 36.988564 37.007591 37.022944 37.034344 37.042009 37.045801 37.045792 37.041983 37.034299 37.022879 37.007505 36.988454 36.965366 36.938659 36.907836 36.873454 36.834890 36.792841 36.746565 36.696900 36.642995 36.585831 36.524458 36.460000 36.391418 36.319977 36.244565 36.166578 36.084847 36.000892 35.913497 35.824300 35.732047 35.638481 35.542325 35.445409 35.346442 35.247325 35.146764 35.046710 34.945872 34.846233 34.746512 34.648700 34.551534 34.456991 34.363832 34.273999 34.186282 34.102567 34.021678 33.945429 33.872682 33.805161 33.741769 33.684132 33.631195 33.584471 33.542955 33.508040 33.478769 33.456410 33.440057 33.430849 33.427932 33.432315 33.443192 33.461445 33.486315 33.518557 33.557457 33.603647 33.656453 33.716387 33.782813 33.856128 33.935727 34.021900 34.114067 34.212416 34.316391 34.426083 34.540953 34.661004 34.785714 34.915003 35.048362 35.185639 35.326336 35.470236 35.616854 35.765915 35.916950 36.069632 36.223512 36.378222 36.533333
36.911111 36.744330 36.577995 36.412587 36.248509 36.086270 35.926226 35.768909 35.614615 35.463898 35.316988 35.174454 35.036452 34.903570 34.775877 34.653979 34.537853 34.428126 34.324671 34.228138 34.138292 34.055809 33.980337 33.912583 33.852071 33.799544 33.754393 33.717406 33.687835 33.666511 33.652548 33.646825 33.648310 33.657932 33.674516 33.699042 33.730188 33.768987 33.813973 33.866233 33.924160 33.988891 34.058689 34.134738 34.215181 34.301246 34.390969 34.485618 34.583139 34.684837 34.788586 34.895722 35.004071 35.114997 35.226297 35.339357 35.451973 35.565546 35.677895 35.790429 35.901013 36.011058 36.118499 36.224737 36.327796 36.429061 36.526662 36.621955 36.713193 36.801688 36.885829 36.966870 37.043346 37.116440 37.184838 37.249636 37.309675 37.365950 37.417462 37.465091 37.507993 37.546923 37.581195 37.611425 37.637083 37.658638 37.675713 37.688626 37.697149 37.701444 37.701435 37.697121 37.688577 37.675643 37.658545 37.636963 37.611278 37.581015 37.546706 37.507734 37.464783 37.417099 37.365524 37.309176 37.249053 37.184161 37.115654 37.042435 36.965817 36.884614 36.800290 36.711588 36.620115 36.524559 36.426660 36.325061 36.221628 36.114972 36.007066 35.896502 35.785342 35.672171 35.559118 35.444768 35.331298 35.217301 35.104975 34.992928 34.883358 34.774894 34.669705 34.566450 34.467248 34.370789 34.279122 34.190975 34.108306 34.029885 33.957564 33.890159 33.829403 33.774159 33.726032 33.683938 33.649345 33.621222 33.600895 33.587389 33.581888 33.583469 33.593174 33.610133 33.635247 33.667697 33.708244 33.756118 33.811946 33.875001 33.945780 34.023596 34.108822 34.200805 34.299802 34.405187 34.517110 34.634967 34.758809 34.888048 35.022645 35.162028 35.306071 35.454221 35.606274 35.761691 35.920201 36.081281 36.244603 36.409660 36.576076 36.743366 36.911111
37.288889 37.109666 36.930948 36.753198 36.576956 36.402636 36.230806 36.061821 35.896275 35.734454 35.576974 35.424044 35.276298 35.133861 34.997387 34.866902 34.743083 34.625850 34.515906 34.413054 34.318026 34.230501 34.151243 34.079802 34.016978 33.962179 33.916252 33.878456 33.849685 33.829047 33.817487 33.813955 33.819450 33.832762 33.854947 33.884634 33.922933 33.968314 34.021944 34.082136 34.150110 34.224030 34.305168 34.391548 34.484490 34.581891 34.685117 34.791953 34.903805 35.018370 35.137090 35.257592 35.381350 35.505949 35.632889 35.759740 35.888020 36.015312 36.143148 36.269150 36.394855 36.517950 36.639970 36.758692 36.875636 36.988691 37.099352 37.205636 37.309000 37.407606 37.502858 37.593072 37.679585 37.760876 37.838197 37.910197 37.978025 38.040503 38.098664 38.151501 38.199916 38.243075 38.281734 38.315229 38.344160 38.368033 38.387282 38.401579 38.411186 38.415941 38.415931 38.411155 38.401526 38.387206 38.367932 38.344032 38.315070 38.281540 38.242841 38.199637 38.151171 38.098273 38.040045 37.977488 37.909570 37.837467 37.760030 37.678604 37.591938 37.501550 37.406101 37.307271 37.203655 37.097086 36.986105 36.872691 36.755344 36.636173 36.513651 36.389997 36.263672 36.136984 36.008390 35.880261 35.751061 35.623201 35.495156 35.369349 35.244277 35.122345 35.002075 34.885832 34.772169 34.663384 34.558065 34.458422 34.363083 34.274149 34.190294 34.113494 34.042473 33.979067 33.922056 33.873127 33.831115 33.797555 33.771339 33.753845 33.744025 33.743097 33.750072 33.766012 33.789983 33.822893 33.863865 33.913655 33.971435 34.037819 34.112024 34.194527 34.284583 34.382539 34.487687 34.600249 34.719547 34.845689 34.978021 35.116548 35.260633 35.410186 35.564589 35.723664 35.886812 36.053775 36.223971 36.397075 36.572525 36.749936 36.928770 37.108591 37.288889
37.666667 37.475101 37.284061 37.094114 36.905735 36.719527 36.535906 36.355504 36.178670 36.006062 35.837949 35.675013 35.517435 35.365920 35.220548 35.082050 34.950396 34.826343 34.709741 34.601377 34.500972 34.409348 34.326087 34.252049 34.186670 34.130855 34.083881 34.046706 34.018443 34.000103 33.990631 33.991094 34.000264 34.019268 34.046699 34.083747 34.128827 34.183189 34.245074 34.315789 34.393406 34.479289 34.571348 34.670999 34.776005 34.887831 35.004109 35.126345 35.252062 35.382805 35.516008 35.653252 35.791911 35.933595 36.075644 36.219694 36.363084 36.507467 36.650212 36.792982 36.933205 37.072547 37.208524 37.342792 37.472981 37.600729 37.723798 37.843793 37.958631 38.069867 38.175583 38.277272 38.373193 38.464755 38.550401 38.631440 38.706502 38.776777 38.841085 38.900482 38.953973 39.002465 39.045148 39.082766 39.114692 39.141494 39.162728 39.178776 39.189371 39.194708 39.194697 39.189338 39.178719 39.162647 39.141387 39.114555 39.082595 39.044940 39.002214 38.953674 38.900128 38.840668 38.776286 38.705927 38.630769 38.549620 38.463848 38.372142 38.276058 38.174182 38.068254 37.956779 37.841672 37.721371 37.597959 37.469826 37.339206 37.204455 37.067941 36.928001 36.787113 36.643608 36.500050 36.354772 36.210396 36.065265 35.922031 35.779054 35.638986 35.500210 35.365345 35.232805 35.105149 34.980824 34.862304 34.748075 34.640501 34.538113 34.443144 34.354175 34.273294 34.199136 34.133628 34.075465 34.026407 33.985209 33.953460 33.929976 33.916173 33.910931 33.915492 33.928798 33.951920 33.983862 34.025528 34.075978 34.135956 34.204576 34.282429 34.368674 34.463756 34.566878 34.678347 34.797401 34.924220 35.058072 35.199017 35.346350 35.500022 35.659350 35.824186 35.993867 36.168156 36.346410 36.528313 36.713242 36.900813 37.090428 37.281643 37.473887 37.666667