# vtk DataFile Version 3.0
Steady-state temperature (Jacobi)
ASCII
DATASET STRUCTURED_POINTS
DIMENSIONS 181 181 1
ORIGIN 0.0 0.0 0.0
SPACING 0.05 0.05 1.0
POINT_DATA 32761
SCALARS Temperature float 1
LOOKUP_TABLE default
32.000000 32.000000 32.000000 32.000000 32.000000 32.000000 32.000000 32.000000
32.000000 32.000000 32.000000 32.000000 32.000000 32.000000 32.000000 32.000000
32.000000 32.000000 32.000000 32.000000 32.000000 32.000000 32.000000 32.000000
32.000000 32.000000 32.000000 32.000000 32.000000 32.000000 32.000000 32.000000
32.000000 32.000000 32.000000 32.000000 32.000000 32.000000 32.000000 32.000000
32.000000 32.000000 32.000000 32.000000 32.000000 32.000000 32.000000 32.000000
32.000000 32.000000 32.000000 32.000000 32.000000 32.000000 32.000000 32.000000
32.000000 32.000000 32.000000 32.000000 32.000000 32.000000 32.000000 32.000000
32.000000 32.000000 32.000000 32.000000 32.000000 32.000000 32.000000 32.000000
32.000000 32.000000 32.000000 32.000000 32.000000 32.000000 32.000000 32.000000
32.000000 32.000000 32.000000 32.000000 32.000000 32.000000 32.000000 32.000000
32.000000 32.000000 32.000000 32.000000 32.000000 32.000000 32.000000 32.000000
32.000000 32.000000 32.000000 32.000000 32.000000 32.000000 32.000000 32.000000
32.000000 32.000000 32.000000 32.000000 32.000000 32.000000 32.000000 32.000000
32.000000 32.000000 32.000000 32.000000 32.000000 32.000000 32.000000 32.000000
32.000000 32.000000 32.000000 32.000000 32.000000 32.000000 32.000000 32.000000
32.000000 32.000000 32.000000 32.000000 32.000000 32.000000 32.000000 32.000000
32.000000 32.000000 32.000000 32.000000 32.000000 32.000000 32.000000 32.000000
32.000000 32.000000 32.000000 32.000000 32.000000 32.000000 32.000000 32.000000
32.000000 32.000000 32.000000 32.000000 32.000000 32.000000 32.000000 32.000000
32.000000 32.000000 32.000000 32.000000 32.000000 32.000000 32.000000 32.000000
32.000000 32.000000 32.000000 32.000000 32.000000 32.000000 32.000000 32.000000
32.000000 32.000000 32.000000 32.000000 32.000000
32.377778 32.409392 32.441010 32.472633 32.504265 32.535908 32.567564 32.599237
32.630928 32.662639 32.694372 32.726129 32.757909 32.789715 32.821546 32.853402
32.885282 32.917186 32.949110 32.981055 33.013015 33.044989 33.076971 33.108959
33.140944 33.172922 33.204886 33.236828 33.268740 33.300612 33.332434 33.364197
33.395887 33.427494 33.459003 33.490402 33.521673 33.552805 33.583778 33.614578
33.645185 33.675583 33.705752 33.735675 33.765329 33.794696 33.823755 33.852486
33.880867 33.908877 33.936495 33.963700 33.990471 34.016786 34.042625 34.067968
34.092793 34.117083 34.140816 34.163975 34.186540 34.208497 34.229826 34.250513
34.270542 34.289899 34.308569 34.326542 34.343803 34.360344 34.376152 34.391220
34.405537 34.419097 34.431892 34.443916 34.455162 34.465627 34.475304 34.484192
34.492285 34.499581 34.506078 34.511773 34.516664 34.520751 34.524032 34.526505
34.528172 34.529030 34.529080 34.528323 34.526758 34.524386 34.521208 34.517225
34.512439 34.506851 34.500463 34.493277 34.485297 34.476524 34.466965 34.456621
34.445499 34.433603 34.420940 34.407515 34.393337 34.378413 34.362753 34.346365
34.329262 34.311452 34.292950 34.273767 34.253918 34.233416 34.212279 34.190520
34.168159 34.145210 34.121695 34.097630 34.073037 34.047933 34.022341 33.996279
33.969770 33.942834 33.915493 33.887768 33.859681 33.831251 33.802503 33.773454
33.744127 33.714540 33.684716 33.654670 33.624425 33.593997 33.563404 33.532662
33.501789 33.470799 33.439707 33.408527 33.377272 33.345955 33.314587 33.283179
33.251741 33.220281 33.188810 33.157333 33.125859 33.094392 33.062939 33.031504
33.000091 32.968703 32.937344 32.906014 32.874717 32.843452 32.812221 32.781023
32.749857 32.718724 32.687621 32.656547 32.625500 32.594477 32.563477 32.532497
32.501533 32.470582 32.439642 32.408708 32.377778
32.755556 32.818786 32.882021 32.945269 33.008533 33.071820 33.135135 33.198481
33.261865 33.325290 33.388758 33.452273 33.515838 33.579452 33.643118 33.706833
33.770598 33.834409 33.898265 33.962159 34.026087 34.090041 34.154014 34.217995
34.281976 34.345941 34.409880 34.473774 34.537609 34.601365 34.665024 34.728561
34.791958 34.855185 34.918220 34.981031 35.043593 35.105872 35.167838 35.229455
35.290691 35.351505 35.411865 35.471729 35.531060 35.589814 35.647955 35.705437
35.762221 35.818262 35.873521 35.927952 35.981515 36.034166 36.085866 36.136571
36.186243 36.234839 36.282325 36.328660 36.373810 36.417739 36.460414 36.501802
36.541875 36.580601 36.617956 36.653912 36.688447 36.721537 36.753164 36.783306
36.811949 36.839075 36.864672 36.888724 36.911223 36.932156 36.951515 36.969293
36.985483 37.000077 37.013073 37.024464 37.034249 37.042423 37.048985 37.053933
37.057266 37.058983 37.059083 37.057568 37.054438 37.049694 37.043337 37.035370
37.025796 37.014618 37.001839 36.987465 36.971501 36.953954 36.934830 36.914139
36.891889 36.868092 36.842758 36.815903 36.787538 36.757683 36.726352 36.693568
36.659349 36.623719 36.586701 36.548322 36.508609 36.467592 36.425299 36.381767
36.337025 36.291112 36.244061 36.195914 36.146705 36.096479 36.045271 35.993128
35.940088 35.886195 35.831491 35.776020 35.719822 35.662944 35.605423 35.547306
35.488629 35.429437 35.369766 35.309658 35.249147 35.188273 35.127067 35.065568
35.003803 34.941807 34.879607 34.817233 34.754708 34.692061 34.629311 34.566484
34.503596 34.440667 34.377713 34.314752 34.251793 34.188852 34.125938 34.063061
34.000228 33.937448 33.874723 33.812060 33.749460 33.686928 33.624461 33.562062
33.499728 33.437459 33.375251 33.313101 33.251005 33.188960 33.126958 33.064997
33.003068 32.941166 32.879284 32.817416 32.755556
33.133333 33.228180 33.323036 33.417910 33.512809 33.607742 33.702717 33.797741
33.892821 33.987963 34.083171 34.178450 34.273803 34.369233 34.464739 34.560323
34.655980 34.751710 34.847506 34.943362 35.039269 35.135219 35.231196 35.327190
35.423181 35.519154 35.615085 35.710955 35.806735 35.902401 35.997919 36.093262
36.188389 36.283270 36.377859 36.472119 36.566003 36.659467 36.752459 36.844934
36.936833 37.028107 37.118695 37.208545 37.297591 37.385778 37.473040 37.559320
37.644548 37.728667 37.811607 37.893309 37.973705 38.052737 38.130336 38.206446
38.281001 38.353947 38.425220 38.494770 38.562537 38.628473 38.692524 38.754646
38.814788 38.872913 38.928975 38.982940 39.034768 39.084430 39.131891 39.177128
39.220110 39.260817 39.299226 39.335320 39.369079 39.400490 39.429539 39.456214
39.480505 39.502404 39.521901 39.538993 39.553673 39.565938 39.575783 39.583206
39.588206 39.590781 39.590932 39.588659 39.583962 39.576844 39.567307 39.555353
39.540988 39.524216 39.505043 39.483475 39.459523 39.433193 39.404498 39.373450
39.340063 39.304352 39.266337 39.226035 39.183470 39.138665 39.091647 39.042444
38.991089 38.937613 38.882056 38.824453 38.764848 38.703283 38.639807 38.574464
38.507310 38.438392 38.367772 38.295500 38.221640 38.146247 38.069386 37.991116
37.911504 37.830609 37.748501 37.665238 37.580890 37.495515 37.409183 37.321951
37.233886 37.145044 37.055490 36.965275 36.874463 36.783103 36.691251 36.598955
36.506268 36.413231 36.319894 36.226293 36.132473 36.038467 35.944313 35.850039
35.755680 35.661258 35.566805 35.472336 35.377878 35.283445 35.189057 35.094723
35.000459 34.906272 34.812174 34.718166 34.624258 34.530447 34.436740 34.343133
34.249627 34.156216 34.062900 33.969670 33.876524 33.783451 33.690447 33.597502
33.504607 33.411752 33.318929 33.226126 33.133333
33.511111 33.637578 33.764056 33.890558 34.017095 34.143678 34.270318 34.397023
34.523804 34.650668 34.777623 34.904672 35.031824 35.159077 35.286436 35.413898
35.541463 35.669124 35.796877 35.924711 36.052619 36.180582 36.308589 36.436616
36.564648 36.692653 36.820611 36.948485 37.076247 37.203856 37.331276 37.458460
37.585366 37.711940 37.838135 37.963889 38.089149 38.213847 38.337925 38.461309
38.583934 38.705722 38.826604 38.946496 39.065326 39.183005 39.299458 39.414595
39.528338 39.640594 39.751286 39.860320 39.967618 40.073089 40.176655 40.278226
40.377729 40.475077 40.570199 40.663014 40.753454 40.841444 40.926922 41.009818
41.090078 41.167638 41.242448 41.314453 41.383610 41.449871 41.513198 41.573550
41.630897 41.685204 41.736447 41.784596 41.829632 41.871533 41.910283 41.945864
41.978266 42.007474 42.033481 42.056278 42.075858 42.092215 42.105345 42.115246
42.121914 42.125349 42.125550 42.122517 42.116253 42.106758 42.094037 42.078094
42.058934 42.036563 42.010988 41.982221 41.950269 41.915148 41.876870 41.835452
41.790912 41.743273 41.692555 41.638788 41.581997 41.522218 41.459483 41.393833
41.325307 41.253953 41.179815 41.102951 41.023409 40.941253 40.856541 40.769342
40.679719 40.587748 40.493496 40.397046 40.298470 40.197853 40.095272 39.990817
39.884564 39.776607 39.667024 39.555908 39.443339 39.329409 39.214195 39.097790
38.980269 38.861720 38.742216 38.621841 38.500665 38.378766 38.256210 38.133070
38.009404 37.885282 37.760756 37.635889 37.510726 37.385324 37.259722 37.133970
37.008102 36.882160 36.756171 36.630173 36.504185 36.378239 36.252350 36.126542
36.000826 35.875219 35.749728 35.624364 35.499131 35.374035 35.249074 35.124252
34.999563 34.875007 34.750574 34.626262 34.502058 34.377958 34.253946 34.130016
34.006152 33.882343 33.758576 33.634836 33.511111
33.888889 34.046978 34.205083 34.363217 34.521395 34.679633 34.837941 34.996334
35.154822 35.313416 35.472124 35.630956 35.789914 35.949006 36.108228 36.267587
36.427073 36.586688 36.746417 36.906256 37.066185 37.226193 37.386255 37.546353
37.706454 37.866535 38.026554 38.186481 38.346266 38.505871 38.665239 38.824324
38.983060 39.141393 39.299250 39.456569 39.613267 39.769276 39.924506 40.078881
40.232304 40.384692 40.535942 40.685967 40.834657 40.981921 41.127645 41.271733
41.414071 41.554559 41.693083 41.829542 41.963821 42.095823 42.225432 42.352554
42.477078 42.598913 42.717952 42.834110 42.947288 43.057404 43.164367 43.268105
43.368533 43.465587 43.559191 43.649288 43.735813 43.818716 43.897942 43.973447
44.045186 44.113123 44.177220 44.237450 44.293780 44.346189 44.394653 44.439155
44.479677 44.516206 44.548729 44.577237 44.601722 44.622176 44.638595 44.650975
44.659313 44.663607 44.663858 44.660065 44.652231 44.640358 44.624450 44.604512
44.580551 44.552573 44.520591 44.484612 44.444652 44.400724 44.352848 44.301042
44.245331 44.185738 44.122296 44.055033 43.983989 43.909200 43.830714 43.748573
43.662836 43.573552 43.480789 43.384603 43.285071 43.182260 43.076253 42.967125
42.854969 42.739864 42.621912 42.501200 42.377834 42.251906 42.123527 41.992795
41.859822 41.724709 41.587571 41.448508 41.307637 41.165057 41.020883 40.875212
40.728157 40.579811 40.430283 40.279661 40.128050 39.975531 39.822203 39.668142
39.513437 39.358158 39.202388 39.046187 38.889631 38.732772 38.575678 38.418393
38.260976 38.103465 37.945908 37.788336 37.630790 37.473293 37.315880 37.158565
37.001376 36.844321 36.687421 36.530679 36.374108 36.217707 36.061483 35.905431
35.749553 35.593838 35.438285 35.282880 35.127616 34.972480 34.817460 34.662539
34.507705 34.352939 34.198226 34.043549 33.888889
34.266667 34.456382 34.646117 34.835887 35.025712 35.215608 35.405592 35.595678
35.785882 35.976214 36.166688 36.357311 36.548092 36.739033 36.930141 37.121411
37.312844 37.504431 37.696167 37.888033 38.080021 38.272103 38.464263 38.656466
38.848687 39.040883 39.233020 39.425046 39.616918 39.808573 39.999960 40.191006
40.381651 40.571811 40.761416 40.950373 41.138603 41.326003 41.512485 41.697936
41.882262 42.065341 42.247071 42.427324 42.605989 42.782936 42.958047 43.131188
43.302239 43.471061 43.637535 43.801520 43.962897 44.121527 44.277293 44.430060
44.579714 44.726125 44.869184 45.008769 45.144779 45.277098 45.405634 45.530281
45.650957 45.767565 45.880031 45.988273 46.092226 46.191816 46.286991 46.377686
46.463859 46.545456 46.622442 46.694775 46.762426 46.825362 46.883561 46.936996
46.985654 47.029513 47.068563 47.102790 47.132186 47.156742 47.176453 47.191315
47.201324 47.206479 47.206779 47.202225 47.192819 47.178564 47.159464 47.135526
47.106756 47.073166 47.034762 46.991562 46.943578 46.890830 46.833335 46.771122
46.704213 46.632643 46.556441 46.475652 46.390312 46.300475 46.206187 46.107511
46.004503 45.897236 45.785777 45.670209 45.550610 45.427073 45.299685 45.168551
45.033765 44.895444 44.753689 44.608625 44.460360 44.309026 44.154736 43.997628
43.837819 43.675449 43.510638 43.343527 43.174235 43.002904 42.829652 42.654617
42.477913 42.299675 42.120012 41.939053 41.756901 41.573677 41.389477 41.204414
41.018576 40.832067 40.644965 40.457365 40.269336 40.080962 39.892303 39.703434
39.514403 39.325276 39.136093 38.946908 38.757754 38.568674 38.379692 38.190843
38.002143 37.813618 37.625278 37.437139 37.249205 37.061486 36.873978 36.686686
36.499601 36.312721 36.126034 35.939532 35.753199 35.567023 35.380987 35.195075
35.009265 34.823541 34.637880 34.452263 34.266667
34.644444 34.865791 35.087158 35.308570 35.530046 35.751607 35.973272 36.195060
36.416987 36.639070 36.861319 37.083750 37.306366 37.529179 37.752187 37.975396
38.198797 38.422389 38.646156 38.870091 39.094167 39.318371 39.542666 39.767030
39.991415 40.215790 40.440097 40.664294 40.888312 41.112099 41.335573 41.558671
41.781300 42.003386 42.224823 42.445527 42.665381 42.884288 43.102122 43.318774
43.534110 43.748011 43.960332 44.170948 44.379707 44.586476 44.791096 44.993430
45.193317 45.390615 45.585161 45.776814 45.965409 46.150807 46.332847 46.511392
46.686287 46.857401 47.024586 47.187717 47.346656 47.501287 47.651484 47.797140
47.938140 48.074391 48.205789 48.332252 48.453691 48.570034 48.681206 48.787147
48.887792 48.983095 49.073001 49.157474 49.236470 49.309960 49.377912 49.440303
49.497109 49.548314 49.593899 49.633855 49.668169 49.696833 49.719841 49.737187
49.748869 49.754885 49.755234 49.749917 49.738937 49.722296 49.700000 49.672055
49.638470 49.599254 49.554421 49.503983 49.447961 49.386370 49.319239 49.246590
49.168458 49.084873 48.995881 48.901519 48.801844 48.696903 48.586764 48.471485
48.351148 48.225821 48.095597 47.960559 47.820813 47.676451 47.527593 47.374343
47.216832 47.055175 46.889512 46.719968 46.546692 46.369818 46.189500 46.005878
45.819112 45.629343 45.436737 45.241434 45.043600 44.843376 44.640926 44.436386
44.229917 44.021650 43.811741 43.600313 43.387513 43.173460 42.958289 42.742108
42.525045 42.307197 42.088680 41.869581 41.650003 41.430023 41.209732 40.989195
40.768493 40.547677 40.326817 40.105955 39.885149 39.664429 39.443843 39.223412
39.003172 38.783137 38.563332 38.343763 38.124447 37.905382 37.686576 37.468022
37.249720 37.031658 36.813829 36.596217 36.378810 36.161587 35.944532 35.727621
35.510835 35.294148 35.077538 34.860978 34.644444
35.022222 35.275203 35.528209 35.781266 36.034399 36.287631 36.540985 36.794483
37.048145 37.301987 37.556029 37.810278 38.064752 38.319452 38.574388 38.829556
39.084959 39.340582 39.596423 39.852458 40.108675 40.365039 40.621529 40.878099
41.134718 41.391327 41.647884 41.904316 42.160571 42.416562 42.672224 42.927457
43.182182 43.436287 43.689679 43.942232 44.193841 44.444368 44.693694 44.941669
45.188163 45.433014 45.676083 45.917198 46.156211 46.392943 46.627237 46.858909
47.087798 47.313717 47.536502 47.755965 47.971943 48.184249 48.392722 48.597181
48.797470 48.993415 49.184869 49.371665 49.553667 49.730720 49.902698 50.069461
50.230896 50.386875 50.537300 50.682059 50.821066 50.954225 51.081464 51.202701
51.317878 51.426926 51.529799 51.626443 51.716820 51.800889 51.878621 51.949985
52.014960 52.073522 52.125658 52.171351 52.210592 52.243369 52.269678 52.289513
52.302870 52.309747 52.310145 52.304064 52.291506 52.272475 52.246977 52.215019
52.176608 52.131759 52.080480 52.022792 51.958709 51.888259 51.811461 51.728352
51.638959 51.543328 51.441497 51.333522 51.219452 51.099356 50.973295 50.841353
50.703601 50.560140 50.411056 50.256461 50.096458 49.931174 49.760723 49.585249
49.404877 49.219765 49.030049 48.835898 48.637458 48.434909 48.228403 48.018126
47.804238 47.586928 47.366359 47.142721 46.916177 46.686917 46.455102 46.220918
45.984521 45.746092 45.505778 45.263754 45.020158 44.775153 44.528870 44.281460
44.033040 43.783750 43.533697 43.283005 43.031768 42.780098 42.528074 42.275797
42.023332 41.770764 41.518148 41.265555 41.013026 40.760621 40.508370 40.256319
40.004488 39.752911 39.501600 39.250576 38.999843 38.749413 38.499281 38.249451
37.999911 37.750657 37.501671 37.252942 37.004449 36.756174 36.508092 36.260181
36.012412 35.764762 35.517199 35.269696 35.022222
35.400000 35.684620 35.969268 36.253976 36.538770 36.823681 37.108731 37.393948
37.679354 37.964971 38.250815 38.536906 38.823251 39.109867 39.396751 39.683913
39.971342 40.259041 40.546988 40.835175 41.123572 41.412159 41.700892 41.989743
42.278653 42.567581 42.856454 43.145219 43.433788 43.722093 44.010032 44.297521
44.584443 44.870700 45.156159 45.440706 45.724195 46.006497 46.287450 46.566913
46.844709 47.120686 47.394655 47.666452 47.935878 48.202760 48.466892 48.728093
48.986151 49.240883 49.492074 49.739538 49.983062 50.222462 50.457528 50.688080
50.913916 51.134863 51.350728 51.561349 51.766545 51.966166 52.160045 52.348048
52.530022 52.705847 52.875390 53.038546 53.195199 53.345261 53.488631 53.625236
53.754995 53.877848 53.993729 54.102590 54.204379 54.299062 54.386597 54.466960
54.540119 54.606058 54.664755 54.716198 54.760372 54.797271 54.826886 54.849212
54.864246 54.871986 54.872431 54.865583 54.851445 54.830020 54.801315 54.765334
54.722091 54.671593 54.613858 54.548899 54.476741 54.397402 54.310916 54.217309
54.116625 54.008899 53.894189 53.772541 53.644024 53.508700 53.366653 53.217958
53.062716 52.901017 52.732980 52.558711 52.378345 52.192005 51.999843 51.801996
51.598633 51.389905 51.175994 50.957064 50.733309 50.504903 50.272051 50.034932
49.793759 49.548715 49.300017 49.047850 48.792431 48.533943 48.272601 48.008584
47.742102 47.473325 47.202457 46.929659 46.655124 46.379002 46.101473 45.822676
45.542776 45.261900 44.980197 44.697779 44.414782 44.131301 43.847457 43.563330
43.279024 42.994608 42.710168 42.425758 42.141451 41.857287 41.573324 41.289589
41.006129 40.722958 40.440109 40.157587 39.875413 39.593583 39.312107 39.030973
38.750182 38.469714 38.189562 37.909702 37.630117 37.350779 37.071667 36.792749
36.513997 36.235379 35.956862 35.678414 35.400000
35.777778 36.094040 36.410335 36.726698 37.043160 37.359753 37.676509 37.993453
38.310617 38.628018 38.945686 39.263630 39.581875 39.900423 40.219289 40.538470
40.857970 41.177775 41.497881 41.818261 42.138901 42.459759 42.780812 43.102002
43.423291 43.744607 44.065899 44.387078 44.708077 45.028790 45.349134 45.668987
45.988248 46.306778 46.624459 46.941135 47.256672 47.570896 47.883657 48.194766
48.504058 48.811329 49.116400 49.419055 49.719105 50.016321 50.310505 50.601423
50.888868 51.172602 51.452416 51.728070 51.999355 52.266033 52.527900 52.784723
53.036304 53.282420 53.522885 53.757486 53.986050 54.208381 54.424319 54.633687
54.836341 55.032123 55.220908 55.402556 55.576961 55.744003 55.903593 56.055631
56.200045 56.336753 56.465698 56.586816 56.700062 56.805387 56.902759 56.992140
57.073509 57.146837 57.212112 57.269313 57.318432 57.359457 57.392383 57.417203
57.433916 57.442519 57.443012 57.435396 57.419674 57.395851 57.363930 57.323922
57.275833 57.219678 57.155468 57.083225 57.002964 56.914717 56.818506 56.714373
56.602351 56.482493 56.354844 56.219472 56.076435 55.925818 55.767695 55.602168
55.429328 55.249297 55.062183 54.868128 54.667258 54.459735 54.245703 54.025342
53.798813 53.566313 53.328019 53.084142 52.834872 52.580434 52.321025 52.056882
51.788207 51.515243 51.238198 50.957314 50.672800 50.384897 50.093811 49.799779
49.502999 49.203701 48.902074 48.598336 48.292667 47.985271 47.676313 47.365984
47.054434 46.741839 46.428330 46.114067 45.799166 45.483768 45.167972 44.851903
44.535642 44.219295 43.902930 43.586634 43.270460 42.954479 42.638728 42.323263
42.008108 41.693305 41.378865 41.064815 40.751156 40.437904 40.125049 39.812596
39.500526 39.188835 38.877497 38.566498 38.255807 37.945404 37.635253 37.325326
37.015585 36.705999 36.396527 36.087133 35.777778
36.155556 36.503463 36.851409 37.199431 37.547565 37.895849 38.244315 38.592999
38.941927 39.291132 39.640633 39.990457 40.340616 40.691130 41.042001 41.393242
41.744843 42.096806 42.449110 42.801746 43.154677 43.507884 43.861314 44.214933
44.568672 44.922482 45.276276 45.629988 45.983514 46.336770 46.689631 47.041998
47.393725 47.744694 48.094740 48.443725 48.791466 49.137808 49.482548 49.825512
50.166482 50.505268 50.841635 51.175380 51.506255 51.834044 52.158489 52.479366
52.796411 53.109392 53.418042 53.722128 54.021383 54.315577 54.604448 54.887770
55.165290 55.436793 55.702038 55.960822 56.212921 56.458147 56.696294 56.927194
57.150662 57.366548 57.574688 57.774955 57.967208 58.151338 58.327226 58.494785
58.653915 58.804549 58.946607 59.080036 59.204774 59.320783 59.428016 59.526447
59.616041 59.696781 59.768643 59.831617 59.885686 59.930846 59.967086 59.994405
60.012798 60.022265 60.022804 60.014418 59.997111 59.970883 59.935744 59.891697
59.838756 59.776928 59.706232 59.626680 59.538301 59.441112 59.335152 59.220450
59.097054 58.965006 58.824370 58.675202 58.517582 58.351582 58.177304 57.994837
57.804303 57.605811 57.399506 57.185517 56.964010 56.735137 56.499084 56.256023
56.006161 55.749686 55.486827 55.217786 54.942807 54.662106 54.375939 54.084531
53.788147 53.487018 53.181414 52.871567 52.557747 52.240185 51.919148 51.594861
51.267583 50.937530 50.604952 50.270052 49.933067 49.594187 49.253631 48.911574
48.568219 48.223721 47.878266 47.531991 47.185060 46.837594 46.489736 46.141588
45.793275 45.444879 45.096506 44.748220 44.400109 44.052220 43.704623 43.357351
43.010456 42.663955 42.317887 41.972257 41.627086 41.282369 40.938115 40.594309
40.250948 39.908007 39.565475 39.223319 38.881519 38.540038 38.198846 37.857904
37.517175 37.176617 36.836191 36.495851 36.155556
36.533333 36.912889 37.292487 37.672171 38.051982 38.431961 38.812147 39.192576
39.573285 39.954300 40.335658 40.717375 41.099479 41.481979 41.864895 42.248223
42.631975 43.016133 43.400697 43.785635 44.170934 44.556547 44.942445 45.328563
45.714857 46.101244 46.487662 46.874007 47.260198 47.646112 48.031647 48.416659
48.801026 49.184581 49.567183 49.948642 50.328796 50.707435 51.084378 51.459392
51.832279 52.202788 52.570703 52.935757 53.297718 53.656309 54.011284 54.362355
54.709270 55.051735 55.389492 55.722246 56.049740 56.371680 56.687814 56.997857
57.301565 57.598664 57.888922 58.172083 58.447931 58.716228 58.976780 59.229369
59.473822 59.709948 59.937594 60.156596 60.366823 60.568136 60.760429 60.943584
61.117518 61.282135 61.437373 61.583156 61.719438 61.846161 61.963293 62.070794
62.168640 62.256804 62.335272 62.404025 62.463056 62.512354 62.551915 62.581734
62.601809 62.612140 62.612725 62.603568 62.584670 62.556036 62.517669 62.469580
62.411773 62.344264 62.267062 62.180189 62.083661 61.977511 61.861762 61.736459
61.601636 61.457354 61.303663 61.140639 60.968348 60.786890 60.596349 60.396847
60.188489 59.971421 59.745773 59.511714 59.269396 59.019015 58.760746 58.494808
58.221397 57.940754 57.653095 57.358681 57.057744 56.750559 56.437372 56.118471
55.794109 55.464581 55.130145 54.791099 54.447700 54.100246 53.748988 53.394218
53.036179 52.675153 52.311372 51.945102 51.576562 51.206003 50.833625 50.459660
50.084290 49.707728 49.330134 48.951699 48.572564 48.192899 47.812823 47.432483
47.051978 46.671434 46.290930 45.910571 45.530416 45.150551 44.771018 44.391882
44.013170 43.634929 43.257169 42.879924 42.503190 42.126983 41.751290 41.376114
41.001431 40.627231 40.253482 39.880165 39.507240 39.134679 38.762438 38.390481
38.018759 37.647233 37.275851 36.904568 36.533333
36.911111 37.322315 37.733567 38.144916 38.556406 38.968085 39.379995 39.792180
40.204675 40.617522 41.030746 41.444382 41.858448 42.272971 42.687955 43.103419
43.519354 43.935767 44.352634 44.769948 45.187670 45.605777 46.024211 46.442934
46.861867 47.280954 47.700095 48.119213 48.538186 48.956917 49.375261 49.793097
50.210256 50.626597 51.041925 51.456077 51.868833 52.280007 52.689358 53.096678
53.501703 53.904205 54.303903 54.700549 55.093845 55.483528 55.869289 56.250853
56.627899 57.000148 57.367274 57.728994 58.084984 58.434962 58.778611 59.115655
59.445789 59.768749 60.084244 60.392029 60.691831 60.983425 61.266564 61.541044
61.806643 62.063185 62.310475 62.548361 62.776678 62.995300 63.204088 63.402942
63.591749 63.770433 63.938903 64.097103 64.244964 64.382448 64.509505 64.626107
64.732221 64.827830 64.912913 64.987459 65.051456 65.104900 65.147784 65.180106
65.201863 65.213058 65.213688 65.203757 65.183268 65.152221 65.110626 65.058483
64.995806 64.922599 64.838882 64.744664 64.639972 64.524825 64.399261 64.263309
64.117021 63.960442 63.793641 63.616678 63.429646 63.232624 63.025729 62.809063
62.582768 62.346971 62.101843 61.847535 61.584246 61.312155 61.031486 60.742444
60.445280 60.140220 59.827539 59.507485 59.180351 58.846401 58.505944 58.159257
57.806658 57.448432 57.084903 56.716357 56.343120 55.965474 55.583740 55.198194
54.809148 54.416865 54.021645 53.623736 53.223420 52.820926 52.416520 52.010410
51.602837 51.193990 50.784088 50.373294 49.961804 49.549759 49.137331 48.724638
48.311826 47.898992 47.486260 47.073704 46.661425 46.249477 45.837941 45.426852
45.016269 44.606212 44.196721 43.787800 43.379472 42.971727 42.564575 42.157991
41.751972 41.346485 40.941513 40.537015 40.132964 39.729312 39.326023 38.923045
38.520335 38.117838 37.715505 37.313281 36.911111
37.288889 37.731741 38.174647 38.617658 39.060831 39.504211 39.947853 40.391797
40.836094 41.280777 41.725891 42.171460 42.617520 43.064085 43.511181 43.958809
44.406984 44.855690 45.304931 45.754673 46.204903 46.655570 47.106644 47.558052
48.009746 48.461630 48.913635 49.365642 49.817559 50.269243 50.720577 51.171393
51.621549 52.070851 52.519133 52.966172 53.411777 53.855702 54.297730 54.737588
55.175038 55.609785 56.041567 56.470070 56.895015 57.316069 57.732939 58.145280
58.552787 58.955107 59.351932 59.742904 60.127714 60.506011 60.877488 61.241804
61.598664 61.947740 62.288753 62.621396 62.945411 63.260515 63.566473 63.863031
64.149983 64.427102 64.694212 64.951119 65.197674 65.433714 65.659120 65.873758
66.077537 66.270349 66.452126 66.622788 66.782286 66.930561 67.067580 67.193303
67.307711 67.410776 67.502489 67.582833 67.651805 67.709396 67.755607 67.790432
67.813873 67.825930 67.826605 67.815900 67.793815 67.760356 67.715523 67.659326
67.591766 67.512857 67.422605 67.321030 67.208146 67.083983 66.948562 66.801930
66.644121 66.475197 66.295209 66.104243 65.902370 65.689699 65.466326 65.232386
64.988003 64.733342 64.468554 64.193836 63.909368 63.615379 63.312076 62.999718
62.678540 62.348829 62.010844 61.664896 61.311264 60.950279 60.582237 60.207483
59.826323 59.439112 59.046161 58.647828 58.244422 57.836300 57.423766 57.007168
56.586799 56.162995 55.736034 55.306233 54.873854 54.439194 54.002491 53.564020
53.123997 52.682671 52.240232 51.796905 51.352853 50.908276 50.463312 50.018132
49.572850 49.127613 48.682510 48.237660 47.793134 47.349025 46.905381 46.462275
46.019735 45.577813 45.136518 44.695885 44.255906 43.816598 43.377941 42.939934
42.502547 42.065764 41.629545 41.193864 40.758671 40.323930 39.889585 39.455592
39.021891 38.588430 38.155148 37.721989 37.288889
37.666667 38.141163 38.615719 39.090395 39.565246 40.040332 40.515704 40.991418
41.467519 41.944058 42.421069 42.898598 43.376667 43.855313 44.334544 44.814388
45.294837 45.775903 46.257564 46.739816 47.222615 47.705942 48.189732 48.673945
49.158493 49.643314 50.128296 50.613354 51.098349 51.583170 52.067650 52.551654
53.034985 53.517480 53.998915 54.479098 54.957776 55.434730 55.909678 56.382376
56.852515 57.319825 57.783975 58.244671 58.701561 59.154334 59.602621 60.046095
60.484376 60.917128 61.343966 61.764548 62.178490 62.585455 62.985063 63.376987
63.760860 64.136369 64.503168 64.860964 65.209436 65.548316 65.877313 66.196187
66.504679 66.802582 67.089672 67.365774 67.630697 67.884299 68.126426 68.356964
68.575790 68.782821 68.977960 69.161150 69.332321 69.491432 69.638437 69.773312
69.896025 70.006565 70.104913 70.191066 70.265014 70.326758 70.376293 70.413623
70.438747 70.451667 70.452385 70.440903 70.417223 70.381346 70.333277 70.273017
70.200573 70.115948 70.019156 69.910203 69.789113 69.655900 69.510600 69.353239
69.183869 69.002532 68.809303 68.604242 68.387450 68.159012 67.919057 67.667698
67.405096 67.131394 66.846787 66.551451 66.245615 65.929488 65.603333 65.267390
64.921955 64.567296 64.203739 63.831578 63.451161 63.062804 62.666875 62.263704
61.853673 61.437118 61.014430 60.585948 60.152062 59.713106 59.269466 58.821466
58.369479 57.913816 57.454833 56.992821 56.528116 56.060987 55.591745 55.120634
54.647938 54.173875 53.698701 53.222607 52.745818 52.268498 51.790844 51.312991
50.835108 50.357303 49.879718 49.402435 48.925568 48.449177 47.973351 47.498127
47.023571 46.549701 46.076559 45.604146 45.132486 44.661561 44.191379 43.721910
43.253142 42.785036 42.317567 41.850684 41.384352 40.918511 40.453117 39.988105
39.523421 39.058999 38.594777 38.130688 37.666667
38.044444 38.550580 39.056782 39.563115 40.069645 40.576431 41.083539 41.591021
42.098939 42.607336 43.116267 43.625764 44.135876 44.646620 45.158033 45.670120
46.182904 46.696371 47.210528 47.725344 48.240808 48.756866 49.273487 49.790593
50.308132 50.826000 51.344119 51.862359 52.380615 52.898727 53.416563 53.933932
54.450674 54.966565 55.481415 55.994970 56.507007 57.017242 57.525424 58.031236
58.534399 59.034569 59.531440 60.024644 60.513852 60.998673 61.478759 61.953706
62.423151 62.886679 63.343920 63.794455 64.237915 64.673883 65.101996 65.521849
65.933092 66.335338 66.728256 67.111484 67.484718 67.847625 68.199933 68.541342
68.871614 69.190489 69.497762 69.793212 70.076673 70.347960 70.606943 70.853473
71.087453 71.308768 71.517349 71.713112 71.896010 72.065986 72.223013 72.367053