<?xml version="1.0"?>
<VTKFile type="ImageData" version="0.1" byte_order="LittleEndian">
  <ImageData WholeExtent="0 180 0 180 0 0" Origin="0.0 0.0 0.0" Spacing="0.05 0.05 1">
    <Piece Extent="0 180 0 180 0 0">
      <PointData Scalars="Temperature">
        <DataArray type="Float32" Name="Temperature" format="ascii">
32.000000 32.000000 32.000000 32.000000 32.000000 32.000000 32.000000 32.000000 32.000000 32.000000 32.000000 32.000000 32.000000 32.000000 32.000000 32.000000 32.000000 32.000000 32.000000 32.000000 32.000000 32.000000 32.000000 32.000000 32.000000 32.000000 32.000000 32.000000 32.000000 32.000000 32.000000 32.000000 32.000000 32.000000 32.000000 32.000000 32.000000 32.000000 32.000000 32.000000 32.000000 32.000000 32.000000 32.000000 32.000000 32.000000 32.000000 32.000000 32.000000 32.000000 32.000000 32.000000 32.000000 32.000000 32.000000 32.000000 32.000000 32.000000 32.000000 32.000000 32.000000 32.000000 32.000000 32.000000 32.000000 32.000000 32.000000 32.000000 32.000000 32.000000 32.000000 32.000000 32.000000 32.000000 32.000000 32.000000 32.000000 32.000000 32.000000 32.000000 32.000000 32.000000 32.000000 32.000000 32.000000 32.000000 32.000000 32.000000 32.000000 32.000000 32.000000 32.000000 32.000000 32.000000 32.000000 32.000000 32.000000 32.000000 32.000000 32.000000 32.000000 32.000000 32.000000 32.000000 32.000000 32.000000 32.000000 32.000000 32.000000 32.000000 32.000000 32.000000 32.000000 32.000000 32.000000 32.000000 32.000000 32.000000 32.000000 32.000000 32.000000 32.000000 32.000000 32.000000 32.000000 32.000000 32.000000 32.000000 32.000000 32.000000 32.000000 32.000000 32.000000 32.000000 32.000000 32.000000 32.000000 32.000000 32.000000 32.000000 32.000000 32.000000 32.000000 32.000000 32.000000 32.000000 32.000000 32.000000 32.000000 32.000000 32.000000 32.000000 32.000000 32.000000 32.000000 32.000000 32.000000 32.000000 32.000000 32.000000 32.000000 32.000000 32.000000 32.000000 32.000000 32.000000 32.000000 32.000000 32.000000 32.000000 32.000000 32.000000 32.000000 32.000000 32.000000 32.000000 32.000000 32.000000 32.000000 32.000000 32.000000
32.377778 32.385014 32.392279 32.399603 32.407009 32.414535 32.422196 32.430034 32.438061 32.446319 32.454814 32.463594 32.472657 32.482053 32.491775 32.501873 32.512335 32.523213 32.534486 32.546209 32.558353 32.570974 32.584038 32.597598 32.611613 32.626139 32.641126 32.656628 32.672590 32.689065 32.705990 32.723418 32.741279 32.759623 32.778376 32.797585 32.817170 32.837176 32.857518 32.878239 32.899248 32.920587 32.942160 32.964007 32.986030 33.008265 33.030610 33.053102 33.075637 33.098248 33.120832 33.143419 33.165905 33.188322 33.210564 33.232662 33.254515 33.276149 33.297466 33.318495 33.339138 33.359423 33.379258 33.398671 33.417574 33.435993 33.453848 33.471164 33.487864 33.503975 33.519427 33.534244 33.548364 33.561808 33.574522 33.586526 33.597772 33.608279 33.618005 33.626967 33.635129 33.642507 33.649071 33.654835 33.659775 33.663901 33.667198 33.669671 33.671312 33.672123 33.672101 33.671246 33.669561 33.667043 33.663702 33.659530 33.654543 33.648733 33.642121 33.634694 33.626482 33.617470 33.607692 33.597132 33.585831 33.573771 33.560999 33.547495 33.533315 33.518435 33.502919 33.486742 33.469974 33.452589 33.434663 33.416171 33.397194 33.377706 33.357793 33.337429 33.316707 33.295598 33.274199 33.252482 33.230547 33.208365 33.186039 33.163540 33.140970 33.118301 33.095637 33.072945 33.050333 33.027764 33.005345 32.983040 32.960950 32.939040 32.917408 32.896015 32.874957 32.854194 32.833816 32.813781 32.794176 32.774955 32.756199 32.737862 32.720019 32.702620 32.685736 32.669314 32.653420 32.638000 32.623111 32.608698 32.594813 32.581400 32.568503 32.556067 32.544128 32.532631 32.521605 32.510997 32.500829 32.491046 32.481666 32.472636 32.463965 32.455602 32.447552 32.439766 32.432240 32.424929 32.417824 32.410884 32.404092 32.397410 32.390819 32.384283 32.377778
32.755556 32.770050 32.784604 32.799269 32.814113 32.829176 32.844535 32.860219 32.876313 32.892834 32.909872 32.927432 32.945611 32.964401 32.983902 33.004094 33.025081 33.046829 33.069445 33.092881 33.117246 33.142477 33.168684 33.195792 33.223909 33.252946 33.283012 33.314002 33.346023 33.378957 33.412910 33.447750 33.483579 33.520252 33.557868 33.596271 33.635556 33.675553 33.716355 33.757782 33.799921 33.842585 33.885854 33.929535 33.973704 34.018160 34.062977 34.107948 34.153142 34.198351 34.243641 34.288802 34.333897 34.378716 34.423321 34.467504 34.511323 34.554578 34.597324 34.639365 34.680757 34.721312 34.761084 34.799893 34.837793 34.874616 34.910413 34.945027 34.978509 35.010714 35.041691 35.071308 35.099613 35.126485 35.151971 35.175965 35.198507 35.219507 35.239001 35.256912 35.273272 35.288017 35.301174 35.312692 35.322594 35.330840 35.337448 35.342391 35.345679 35.347299 35.347255 35.345547 35.342170 35.337138 35.330441 35.322104 35.312110 35.300498 35.287245 35.272403 35.255944 35.237932 35.218333 35.197227 35.174575 35.150469 35.124868 35.097876 35.069450 35.039708 35.008602 34.976265 34.942648 34.907895 34.871957 34.834989 34.796940 34.757980 34.718054 34.677342 34.635791 34.593588 34.550679 34.507259 34.463274 34.418924 34.374153 34.329167 34.283907 34.238582 34.193129 34.147760 34.102409 34.057287 34.012323 33.967726 33.923423 33.879616 33.836228 33.793457 33.751221 33.709709 33.668836 33.628781 33.589456 33.551029 33.513406 33.476748 33.440954 33.406173 33.372302 33.339476 33.307590 33.276765 33.246894 33.218084 33.190227 33.163415 33.137540 33.112680 33.088726 33.065743 33.043622 33.022414 33.002013 32.982455 32.963635 32.945579 32.928184 32.911461 32.895312 32.879738 32.864643 32.850017 32.835770 32.821879 32.808264 32.794888 32.781678 32.768589 32.755556
33.133333 33.155132 33.177014 33.199076 33.221386 33.244053 33.267130 33.290738 33.314912 33.339783 33.365369 33.391809 33.419102 33.447396 33.476670 33.507077 33.538577 33.571329 33.605271 33.640564 33.677128 33.715125 33.754452 33.795274 33.837467 33.881194 33.926309 33.972975 34.021026 34.070619 34.121569 34.174029 34.227795 34.283015 34.339464 34.397287 34.456240 34.516462 34.577694 34.640067 34.703307 34.767539 34.832477 34.898239 34.964527 35.031454 35.098715 35.166414 35.234242 35.302298 35.370269 35.438249 35.505926 35.573389 35.640328 35.706830 35.772590 35.837691 35.901837 35.965109 36.027220 36.088251 36.147927 36.206328 36.263193 36.318600 36.372306 36.424386 36.474615 36.523068 36.569536 36.614093 36.656549 36.696974 36.735200 36.771291 36.805100 36.836686 36.865922 36.892860 36.917394 36.939570 36.959301 36.976623 36.991471 37.003873 37.013780 37.021214 37.026144 37.028581 37.028515 37.025946 37.020883 37.013317 37.003274 36.990736 36.975751 36.958288 36.938414 36.916093 36.891410 36.864319 36.834927 36.803181 36.769208 36.732948 36.694549 36.653946 36.611307 36.566563 36.519902 36.471252 36.420820 36.368532 36.314613 36.258988 36.201901 36.143273 36.083366 36.022100 35.959750 35.896236 35.831845 35.766497 35.700489 35.633737 35.566548 35.498834 35.430909 35.362682 35.294468 35.226173 35.158111 35.090183 35.022703 34.955564 34.889075 34.823123 34.758009 34.693615 34.630230 34.567730 34.506392 34.446084 34.387070 34.329210 34.272754 34.217555 34.163844 34.111470 34.060645 34.011214 33.963368 33.916949 33.872127 33.828740 33.786940 33.746561 33.707734 33.670294 33.634349 33.599734 33.566537 33.534596 33.503978 33.474521 33.446274 33.419079 33.392965 33.367780 33.343533 33.320080 33.297411 33.275388 33.253986 33.233076 33.212614 33.192484 33.172626 33.152934 33.133333
33.511111 33.540277 33.569564 33.599072 33.628940 33.659249 33.690152 33.721708 33.754085 33.787320 33.821593 33.856916 33.893480 33.931271 33.970491 34.011099 34.053303 34.097036 34.142511 34.189634 34.238621 34.289350 34.342039 34.396538 34.453064 34.511439 34.571880 34.634178 34.698548 34.764755 34.833007 34.903042 34.975064 35.048784 35.124399 35.201595 35.280562 35.360964 35.442980 35.526254 35.610958 35.696716 35.783691 35.871493 35.960274 36.049631 36.139711 36.230099 36.320935 36.411798 36.502821 36.593582 36.684205 36.774273 36.863903 36.952684 37.040729 37.127636 37.213513 37.297972 37.381120 37.462582 37.542463 37.620407 37.696519 37.770461 37.842337 37.911834 37.979051 38.043701 38.105879 38.165324 38.222129 38.276057 38.327197 38.375339 38.420566 38.462695 38.501802 38.537729 38.570545 38.600118 38.626507 38.649607 38.669464 38.686002 38.699252 38.709164 38.715757 38.719007 38.718919 38.715494 38.708724 38.698634 38.685205 38.668486 38.648445 38.625158 38.598579 38.568811 38.535797 38.499667 38.460353 38.418010 38.372565 38.324198 38.272827 38.218662 38.161614 38.101919 38.039484 37.974571 37.907083 37.837310 37.765150 37.690917 37.614509 37.536262 37.456073 37.374298 37.290832 37.206050 37.119846 37.032611 36.944234 36.855120 36.765156 36.674756 36.583801 36.492712 36.401365 36.310182 36.219035 36.128343 36.037970 35.948331 35.859281 35.771228 35.684018 35.598045 35.513148 35.429705 35.347546 35.267032 35.187983 35.110740 35.035115 34.961425 34.889475 34.819558 34.751472 34.685484 34.621386 34.559420 34.499370 34.441452 34.385448 34.331544 34.279522 34.229539 34.181375 34.135162 34.090680 34.048033 34.007004 33.967670 33.929818 33.893499 33.858506 33.824864 33.792376 33.761039 33.730667 33.701233 33.672563 33.644607 33.617204 33.590281 33.563692 33.537346 33.511111
33.888889 33.925516 33.962281 33.999349 34.036832 34.074914 34.113682 34.153340 34.193946 34.235720 34.278691 34.323093 34.368925 34.416434 34.465585 34.516636 34.569518 34.624497 34.681472 34.740712 34.802081 34.865852 34.931855 35.000363 35.071170 35.144549 35.220257 35.298564 35.379194 35.462411 35.547904 35.635930 35.726146 35.818802 35.913520 36.010542 36.109461 36.210508 36.313249 36.417903 36.524013 36.631785 36.740741 36.851077 36.962296 37.074584 37.187429 37.301007 37.414797 37.528966 37.642988 37.757021 37.870539 37.983692 38.095961 38.207489 38.317766 38.426929 38.534483 38.640562 38.744687 38.846991 38.947015 39.044891 39.140185 39.233025 39.323005 39.410252 39.494390 39.575542 39.653363 39.727973 39.799060 39.866737 39.930727 39.991137 40.047722 40.100580 40.149502 40.194576 40.235624 40.272723 40.305729 40.334705 40.359541 40.380284 40.396855 40.409288 40.417534 40.421610 40.421501 40.417205 40.408739 40.396084 40.379289 40.358320 40.333255 40.304045 40.270801 40.233460 40.192164 40.146837 40.097656 40.044531 39.987673 39.926983 39.862705 39.794732 39.723341 39.648419 39.570277 39.488796 39.404321 39.316727 39.226392 39.133190 39.037526 38.939272 38.838863 38.736167 38.631644 38.525162 38.417201 38.307626 38.196936 38.084992 37.972306 37.858736 37.744804 37.630361 37.515934 37.401367 37.287187 37.173230 37.060018 36.947379 36.835826 36.725174 36.615926 36.507885 36.401535 36.296670 36.193753 36.092565 35.993545 35.896465 35.801736 35.709118 35.618995 35.531116 35.445834 35.362890 35.282605 35.204711 35.129496 35.056689 34.986540 34.918775 34.853612 34.790772 34.730439 34.672337 34.616611 34.562989 34.511583 34.462124 34.414692 34.369024 34.325165 34.282864 34.242134 34.202734 34.164646 34.127643 34.091677 34.056537 34.022148 33.988315 33.954936 33.921836 33.888889
34.266667 34.310858 34.355230 34.399938 34.445188 34.491104 34.537916 34.585715 34.634754 34.685088 34.736989 34.790475 34.845835 34.903050 34.962420 35.023887 35.087765 35.153953 35.222771 35.294080 35.368204 35.444961 35.524679 35.607133 35.692650 35.780961 35.872394 35.966637 36.064009 36.164160 36.267402 36.373343 36.482285 36.593797 36.708173 36.824943 36.944388 37.066005 37.190061 37.316021 37.444141 37.573856 37.705408 37.838210 37.972489 38.107640 38.243875 38.380577 38.517947 38.655356 38.792996 38.930236 39.067257 39.203432 39.338933 39.473142 39.606225 39.737577 39.867360 39.994987 40.120618 40.243689 40.364356 40.482085 40.597028 40.708684 40.817203 40.922118 41.023575 41.121145 41.214971 41.304662 41.390356 41.471701 41.548829 41.621427 41.689620 41.753136 41.812087 41.866241 41.915698 41.960267 42.000031 42.034839 42.064758 42.089673 42.109635 42.124568 42.134502 42.139398 42.139267 42.134108 42.123911 42.108712 42.088482 42.063295 42.033102 41.998015 41.957966 41.913107 41.863353 41.808895 41.749633 41.685799 41.617278 41.544343 41.466870 41.385171 41.299112 41.209047 41.114837 41.016872 40.915010 40.809680 40.700736 40.588645 40.473257 40.355076 40.233947 40.110406 39.984298 39.856188 39.725916 39.594070 39.460490 39.325783 39.189782 39.053108 38.915591 38.777859 38.639733 38.501846 38.364009 38.226853 38.090178 37.954606 37.819926 37.686747 37.554844 37.424808 37.296401 37.170189 37.045921 36.924138 36.804573 36.687736 36.573347 36.461883 36.353052 36.247294 36.144304 36.044486 35.947526 35.853787 35.762946 35.675325 35.590598 35.509044 35.430334 35.354703 35.281823 35.211888 35.144568 35.080019 35.017914 34.958368 34.901062 34.846068 34.793078 34.742127 34.692918 34.645446 34.599432 34.554834 34.511388 34.469021 34.427487 34.386679 34.346375 34.306436 34.266667
34.644444 34.696338 34.748428 34.800942 34.854044 34.907990 34.962905 35.019074 35.076582 35.135737 35.196582 35.259445 35.324328 35.391575 35.461141 35.533387 35.608221 35.686012 35.766623 35.850430 35.937245 36.027452 36.120811 36.217707 36.317853 36.421629 36.528699 36.639440 36.753465 36.871144 36.992042 37.116519 37.244094 37.375115 37.509055 37.646248 37.786128 37.929012 38.074294 38.222277 38.372321 38.524710 38.678776 38.834785 38.992044 39.150805 39.310354 39.470928 39.631800 39.793195 39.954378 40.115561 40.276009 40.435926 40.594583 40.752173 40.907984 41.062201 41.214130 41.363954 41.511003 41.655457 41.796675 41.934836 42.069335 42.200346 42.327306 42.450385 42.569062 42.683505 42.793235 42.898417 42.998619 43.093997 43.184166 43.269275 43.348985 43.423435 43.492331 43.555798 43.613592 43.665819 43.712280 43.753065 43.788019 43.817211 43.840531 43.858027 43.869631 43.875368 43.875215 43.869173 43.857261 43.839457 43.815824 43.786317 43.751042 43.709932 43.663140 43.610575 43.552436 43.488615 43.419356 43.344536 43.264444 43.178943 43.088372 42.992581 42.891955 42.786336 42.676158 42.561255 42.442106 42.318543 42.191088 42.059570 41.924553 41.785864 41.644107 41.499106 41.351501 41.201113 41.048614 40.893821 40.737432 40.579259 40.420020 40.259521 40.098494 39.936737 39.774989 39.613037 39.451621 39.290516 39.130456 38.971204 38.813479 38.657030 38.502558 38.349794 38.199417 38.051141 37.905615 37.762537 37.622520 37.485249 37.351297 37.220334 37.092894 36.968629 36.848032 36.730742 36.617205 36.507051 36.400679 36.297711 36.198495 36.102649 36.010474 35.921584 35.836230 35.754028 35.675178 35.599300 35.526548 35.456547 35.389403 35.324750 35.262649 35.202747 35.145059 35.089250 35.035289 34.982861 34.931895 34.882094 34.833351 34.785394 34.738076 34.691153 34.644444
35.022222 35.081961 35.141944 35.202378 35.263542 35.325600 35.388865 35.453458 35.519719 35.587722 35.657833 35.730078 35.804843 35.882105 35.962268 36.045255 36.131484 36.220825 36.313707 36.409944 36.509970 36.613544 36.721104 36.832352 36.947725 37.066866 37.190210 37.317345 37.448696 37.583795 37.723058 37.865963 38.012912 38.163332 38.317609 38.475119 38.636233 38.800280 38.967612 39.137517 39.310328 39.485295 39.662730 39.841855 40.022961 40.205243 40.388976 40.573336 40.758582 40.943877 41.129465 41.314505 41.499230 41.682802 41.865443 42.046327 42.225668 42.402658 42.577505 42.749429 42.918632 43.084365 43.246830 43.405316 43.560020 43.710276 43.856278 43.997408 44.133857 44.265056 44.391192 44.511749 44.626908 44.736204 44.839813 44.937322 45.028895 45.114175 45.193312 45.266000 45.332373 45.392179 45.445531 45.492229 45.532363 45.565784 45.592559 45.612588 45.625911 45.632479 45.632305 45.625388 45.611715 45.591334 45.564204 45.530422 45.489923 45.442855 45.389125 45.328934 45.262167 45.189075 45.109526 45.023822 44.931813 44.833858 44.729790 44.620022 44.504378 44.383324 44.256676 44.124952 43.987964 43.846282 43.699714 43.548880 43.393584 43.234495 43.071415 42.905056 42.735218 42.562651 42.387152 42.209505 42.029503 41.847955 41.664648 41.480412 41.295026 41.109331 40.923096 40.737167 40.551299 40.366336 40.182018 39.999176 39.817537 39.637913 39.460012 39.284621 39.111429 38.941193 38.773582 38.609317 38.448048 38.290453 38.136165 37.985816 37.839021 37.696366 37.557447 37.422800 37.292009 37.165554 37.043009 36.924800 36.810493 36.700457 36.594253 36.492195 36.393842 36.299453 36.208588 36.121449 36.037603 35.957198 35.879809 35.805530 35.733950 35.665111 35.598616 35.534458 35.472260 35.411967 35.353225 35.295932 35.239761 35.184565 35.130048 35.076021 35.022222
35.400000 35.467765 35.535786 35.604358 35.673693 35.744124 35.815815 35.889133 35.964191 36.041387 36.120780 36.202794 36.287433 36.375142 36.465868 36.560074 36.657645 36.759059 36.864140 36.973375 37.086525 37.204081 37.325742 37.452001 37.582490 37.717701 37.857202 38.001476 38.150031 38.303338 38.460842 38.623002 38.789201 38.959883 39.134374 39.313097 39.495325 39.681461 39.870728 40.063505 40.258972 40.457487 40.658187 40.861411 41.066263 41.273059 41.480879 41.690020 41.899543 42.109727 42.319625 42.529501 42.738407 42.946592 43.153120 43.358229 43.560999 43.761661 43.959321 44.154204 44.345449 44.533278 44.716872 44.896448 45.071234 45.241447 45.406364 45.566202 45.720291 45.868845 46.011254 46.147725 46.277708 46.401404 46.518323 46.628654 46.731968 46.828442 46.917706 46.999919 47.074773 47.142405 47.202565 47.255366 47.300616 47.338402 47.368587 47.391230 47.406250 47.413677 47.413481 47.405664 47.390252 47.367213 47.336629 47.298439 47.252780 47.199563 47.138979 47.070915 46.995619 46.912953 46.823225 46.726276 46.622473 46.511641 46.394207 46.269981 46.139454 46.002423 45.859440 45.710295 45.555601 45.395143 45.229590 45.058727 44.883276 44.703021 44.518737 44.330204 44.138245 43.942639 43.744247 43.542846 43.339333 43.133477 42.926201 42.717269 42.507621 42.297009 42.086384 41.875486 41.665265 41.455446 41.246970 41.039545 40.834097 40.630311 40.429090 40.230099 40.034207 39.841058 39.651482 39.465102 39.282704 39.103887 38.929389 38.758788 38.592770 38.430893 38.273785 38.120988 37.973073 37.829565 37.690974 37.556816 37.427537 37.302645 37.182524 37.066678 36.955427 36.848276 36.745481 36.646551 36.551680 36.460387 36.372803 36.288458 36.207427 36.129253 36.053954 35.981095 35.910637 35.842169 35.775599 35.710543 35.646859 35.584196 35.522362 35.461042 35.400000
35.777778 35.853750 35.930031 36.006882 36.084655 36.163560 36.243990 36.326099 36.410315 36.496736 36.585821 36.677607 36.772578 36.870709 36.972507 37.077880 37.187353 37.300768 37.418659 37.540801 37.667736 37.799169 37.935644 38.076794 38.223164 38.374315 38.530785 38.692065 38.858683 39.030059 39.206709 39.387984 39.574381 39.765187 39.960879 40.160680 40.365045 40.573139 40.785392 41.000917 41.220119 41.442062 41.667125 41.894334 42.124043 42.355244 42.588269 42.822084 43.057000 43.291970 43.527285 43.761892 43.996067 44.228762 44.460239 44.689465 44.916693 45.140913 45.362373 45.580095 45.794323 46.004122 46.209731 46.410264 46.605961 46.795991 46.980590 47.158988 47.331421 47.497180 47.656499 47.808734 47.954112 48.092059 48.222790 48.345800 48.461291 48.568825 48.668588 48.760207 48.843848 48.919202 48.986413 49.045234 49.095780 49.137869 49.171585 49.196805 49.213582 49.221854 49.221638 49.212933 49.195722 49.170064 49.135906 49.093370 49.042371 48.983088 48.915409 48.839575 48.755444 48.663324 48.563047 48.454986 48.338953 48.215388 48.084084 47.945551 47.799569 47.646713 47.486757 47.320343 47.147239 46.968152 46.782847 46.592096 46.395661 46.194375 45.987999 45.777420 45.562399 45.343873 45.121601 44.896561 44.668507 44.438452 44.206144 43.972622 43.737622 43.502198 43.266077 43.030315 42.794624 42.560057 42.326305 42.094408 41.864036 41.636207 41.410565 41.188097 40.968424 40.752491 40.539895 40.331536 40.126983 39.927085 39.731387 39.540679 39.354486 39.173534 38.997327 38.826528 38.660623 38.500208 38.344753 38.194785 38.049765 37.910149 37.775391 37.645877 37.521058 37.401251 37.285907 37.175274 37.068812 36.966698 36.868401 36.774036 36.683085 36.595597 36.511076 36.429506 36.350417 36.273733 36.199010 36.126117 36.054644 35.984402 35.915018 35.846254 35.777778
36.155556 36.239956 36.324673 36.410072 36.496415 36.584114 36.673373 36.764644 36.858071 36.954142 37.052935 37.154971 37.260259 37.369345 37.482171 37.599303 37.720608 37.846669 37.977278 38.113030 38.253640 38.399708 38.550870 38.707728 38.869840 39.037802 39.211095 39.390304 39.574834 39.765256 39.960897 40.162312 40.368754 40.580755 40.797496 41.019488 41.245844 41.477046 41.712147 41.951600 42.194404 42.440981 42.690282 42.942702 43.197148 43.453990 43.712103 43.971832 44.232030 44.493019 44.753641 45.014197 45.273531 45.531928 45.788240 46.042743 46.294311 46.543208 46.788343 47.029974 47.267051 47.499831 47.727313 47.949754 48.166210 48.376939 48.581062 48.778834 48.969445 49.153150 49.329209 49.497874 49.658479 49.811268 49.955649 50.091854 50.219368 50.338405 50.448524 50.549920 50.642221 50.725600 50.799755 50.864828 50.920589 50.967146 51.004336 51.032232 51.050737 51.059887 51.059650 51.050026 51.031045 51.002669 50.964995 50.917948 50.861690 50.796112 50.721442 50.637538 50.544699 50.442754 50.332072 50.212456 50.084348 49.947533 49.802524 49.649091 49.487823 49.318477 49.141718 48.957294 48.765946 48.567417 48.362520 48.150997 47.933731 47.710462 47.482137 47.248499 47.010552 46.768037 46.522010 46.272211 46.019737 45.764322 45.507098 45.247790 44.987551 44.726097 44.464590 44.202730 43.941683 43.681127 43.422216 43.164609 42.909438 42.656336 42.406404 42.159249 41.915933 41.676032 41.440561 41.209068 40.982514 40.760417 40.543677 40.331787 40.125580 39.924523 39.729381 39.539598 39.355866 39.177613 39.005452 38.838797 38.678187 38.523024 38.373769 38.229820 38.091560 37.958385 37.830602 37.707612 37.589646 37.476112 37.367169 37.262239 37.161407 37.064115 36.970378 36.879663 36.791917 36.706634 36.623698 36.542637 36.463272 36.385170 36.308094 36.231653 36.155556
36.533333 36.626377 36.719797 36.813910 36.909143 37.005755 37.104220 37.204729 37.307800 37.413556 37.522550 37.634834 37.750991 37.870998 37.995465 38.124290 38.258101 38.396718 38.540783 38.690032 38.845115 39.005686 39.172397 39.344815 39.523592 39.708207 39.899304 40.096279 40.299760 40.509060 40.724788 40.946175 41.173808 41.406837 41.645826 41.889846 42.139433 42.393589 42.652816 42.916051 43.183766 43.454841 43.729713 44.007213 44.287748 44.570107 44.854669 45.140193 45.427031 45.713923 46.001197 46.287588 46.573405 46.857387 47.139828 47.419486 47.696644 47.970090 48.240099 48.505501 48.766568 49.022181 49.272612 49.516801 49.755021 49.986281 50.210854 50.427822 50.637460 50.838926 51.032494 51.217403 51.393920 51.561366 51.719999 51.869223 52.009280 52.139655 52.260571 52.371593 52.472920 52.564193 52.645581 52.716802 52.777992 52.828939 52.869745 52.900270 52.920574 52.930587 52.930330 52.919801 52.898980 52.867935 52.826603 52.775123 52.713393 52.641624 52.559675 52.467832 52.365921 52.254302 52.132772 52.001768 51.861065 51.711178 51.551862 51.383714 51.206476 51.020826 50.826496 50.624247 50.413806 50.196014 49.970596 49.738473 49.499370 49.254279 49.002930 48.746383 48.484366 48.218002 47.947019 47.672591 47.394444 47.113794 46.830358 46.545384 46.258580 45.971212 45.682972 45.395133 45.107368 44.820946 44.535514 44.252325 43.970999 43.692760 43.417200 43.145502 42.877228 42.613512 42.353883 42.099419 41.849617 41.605491 41.366508 41.133610 40.906235 40.685253 40.470073 40.261486 40.058880 39.862965 39.673109 39.489938 39.312808 39.142260 38.977639 38.819403 38.666893 38.520483 38.379515 38.244278 38.114123 37.989257 37.869042 37.753606 37.642329 37.535262 37.431806 37.331937 37.235088 37.141161 37.049623 36.960306 36.872717 36.786624 36.701575 36.617279 36.533333
36.911111 37.013057 37.115383 37.218526 37.322802 37.428702 37.536475 37.646660 37.759433 37.875374 37.994584 38.117681 38.244684 38.376243 38.512293 38.653508 38.799739 38.951675 39.109082 39.272659 39.442081 39.618054 39.800159 39.989105 40.184378 40.386679 40.595404 40.811241 41.033491 41.262827 41.498459 41.741035 41.989678 42.245010 42.506068 42.773441 43.046089 43.324567 43.607758 43.896184 44.188659 44.485670 44.785972 45.090014 45.396505 45.705858 46.016743 46.329542 46.642898 46.957167 47.270975 47.584656 47.896837 48.207830 48.516276 48.822475 49.125093 49.424421 49.719166 50.009612 50.294519 50.574170 50.847386 51.114452 51.374259 51.627096 51.871932 52.109058 52.337526 52.557627 52.768501 52.970437 53.162662 53.345459 53.518145 53.680992 53.833403 53.975632 54.107172 54.228253 54.338450 54.437966 54.526458 54.604094 54.670612 54.726141 54.770494 54.803760 54.825828 54.836743 54.836465 54.824996 54.802370 54.768542 54.723622 54.667519 54.600419 54.522190 54.433095 54.332962 54.222135 54.100409 53.968208 53.825299 53.672191 53.508627 53.335204 53.151649 52.958644 52.755907 52.544209 52.323262 52.093925 51.855908 51.610160 51.356388 51.095625 50.827584 50.553375 50.272712 49.986778 49.695290 49.399493 49.099101 48.795413 48.488139 48.178618 47.866551 47.553303 47.238564 46.923712 46.608418 46.294061 45.980288 45.668467 45.358214 45.050873 44.746030 44.444989 44.147305 43.854231 43.565286 43.281668 43.002858 42.729987 42.462503 42.201462 41.946277 41.697927 41.455794 41.220771 40.992214 40.770930 40.556248 40.348888 40.148161 39.954694 39.767784 39.587969 39.414537 39.247933 39.087445 38.933425 38.785167 38.642933 38.506026 38.374622 38.248038 38.126366 38.008945 37.895783 37.786249 37.680270 37.577249 37.477038 37.379077 37.283148 37.188733 37.095547 37.003124 36.911111
37.288889 37.399983 37.511522 37.623883 37.737571 37.852894 37.970411 38.090354 38.213330 38.339492 38.469489 38.603392 38.741883 38.884945 39.033292 39.186816 39.346250 39.511395 39.683000 39.860768 40.045458 40.236675 40.435179 40.640475 40.853321 41.073120 41.300619 41.535121 41.777356 42.026529 42.283344 42.546912 42.817909 43.095348 43.379877 43.670417 43.967580 44.270203 44.578859 44.892309 45.211083 45.533876 45.861176 46.191618 46.525653 46.861867 47.200673 47.540622 47.882095 48.223618 48.565546 48.906396 49.246499 49.584380 49.920353 50.252963 50.582512 50.907584 51.228473 51.543813 51.853897 52.157421 52.454680 52.744442 53.027009 53.301229 53.567408 53.824484 54.072767 54.311287 54.540354 54.759096 54.967819 55.165748 55.353180 55.529435 55.694798 55.848681 55.991349 56.122307 56.241789 56.349391 56.445315 56.529240 56.601329 56.661344 56.709406 56.745357 56.769269 56.781065 56.780768 56.768377 56.743867 56.707315 56.658645 56.598015 56.525302 56.440742 56.344172 56.235909 56.115751 55.984101 55.840724 55.686111 55.520000 55.342975 55.154752 54.956009 54.746449 54.526846 54.296893 54.057464 53.808248 53.550215 53.283054 53.007829 52.724235 52.433424 52.135096 51.830485 51.519295 51.202836 50.880813 50.554598 50.223897 49.890132 49.553002 49.213967 48.872714 48.530728 48.187677 47.845053 47.502503 47.161510 46.821695 46.484518 46.149567 45.818270 45.490175 45.166664 44.847247 44.533247 44.224134 43.921163 43.623765 43.333116 43.048611 42.771343 42.500668 42.237593 41.981440 41.733124 41.491938 41.258701 41.032682 40.814601 40.603712 40.400636 40.204612 40.016163 39.834523 39.660116 39.492177 39.331032 39.175923 39.027082 38.883763 38.746105 38.613383 38.485646 38.362194 38.242990 38.127366 38.015202 37.905870 37.799168 37.694513 37.591629 37.489984 37.389229 37.288889
37.666667 37.787201 37.908182 38.030120 38.153389 38.278562 38.405934 38.536134 38.669373 38.806327 38.947123 39.092477 39.242422 39.397711 39.558281 39.724912 39.897443 40.076672 40.262338 40.455252 40.655047 40.862540 41.077259 41.300017 41.530237 41.768722 42.014786 42.269217 42.531223 42.801568 43.079355 43.365318 43.658458 43.959476 44.267272 44.582510 44.903994 45.232348 45.566288 45.906392 46.251299 46.601541 46.955687 47.314225 47.675664 48.040451 48.407049 48.775866 49.145332 49.515822 49.885749 50.255459 50.623364 50.989789 51.353161 51.713791 52.070136 52.422499 52.769385 53.111093 53.446191 53.774980 54.096101 54.409862 54.714989 55.011796 55.299103 55.577232 55.845101 56.103037 56.350061 56.586501 56.811483 57.025329 57.227270 57.417618 57.595705 57.761826 57.915411 58.056731 58.185313 58.301392 58.404590 58.495104 58.572641 58.637356 58.689042 58.727804 58.753519 58.766239 58.765922 58.752569 58.726218 58.686815 58.634481 58.569111 58.490908 58.399718 58.295831 58.179046 58.049745 57.907686 57.753344 57.586445 57.407559 57.216390 57.013604 56.798888 56.573012 56.335652 56.087683 55.828775 55.559908 55.280755 54.992398 54.694516 54.388291 54.073408 53.751143 53.421190 53.084910 52.742003 52.393905 52.040317 51.682740 51.320873 50.956263 50.588602 50.219469 49.848541 49.477415 49.105746 48.735130 48.365195 47.997522 47.631703 47.269290 46.909836 46.554848 46.203837 45.858251 45.517560 45.183141 44.854418 44.532693 44.217345 43.909588 43.608759 43.315981 43.030552 42.753496 42.484077 42.223218 41.970152 41.725698 41.489068 41.260973 41.040608 40.828579 40.624068 40.427577 40.238285 40.056587 39.881667 39.713816 39.552229 39.397096 39.247629 39.103921 38.965207 38.831487 38.702027 38.576734 38.454914 38.336386 38.220499 38.106992 37.995264 37.884975 37.775580 37.666667