# vtk DataFile Version 3.0
Steady-state temperature (Jacobi)
ASCII
DATASET STRUCTURED_POINTS
DIMENSIONS 181 181 1
ORIGIN 0.0 0.0 0.0
SPACING 0.05 0.05 1.0
POINT_DATA 32761
SCALARS Temperature float 1
LOOKUP_TABLE default
32.000000 32.000000 32.000000 32.000000 32.000000 32.000000 32.000000 32.000000
32.000000 32.000000 32.000000 32.000000 32.000000 32.000000 32.000000 32.000000
32.000000 32.000000 32.000000 32.000000 32.000000 32.000000 32.000000 32.000000
32.000000 32.000000 32.000000 32.000000 32.000000 32.000000 32.000000 32.000000
32.000000 32.000000 32.000000 32.000000 32.000000 32.000000 32.000000 32.000000
32.000000 32.000000 32.000000 32.000000 32.000000 32.000000 32.000000 32.000000
32.000000 32.000000 32.000000 32.000000 32.000000 32.000000 32.000000 32.000000
32.000000 32.000000 32.000000 32.000000 32.000000 32.000000 32.000000 32.000000
32.000000 32.000000 32.000000 32.000000 32.000000 32.000000 32.000000 32.000000
32.000000 32.000000 32.000000 32.000000 32.000000 32.000000 32.000000 32.000000
32.000000 32.000000 32.000000 32.000000 32.000000 32.000000 32.000000 32.000000
32.000000 32.000000 32.000000 32.000000 32.000000 32.000000 32.000000 32.000000
32.000000 32.000000 32.000000 32.000000 32.000000 32.000000 32.000000 32.000000
32.000000 32.000000 32.000000 32.000000 32.000000 32.000000 32.000000 32.000000
32.000000 32.000000 32.000000 32.000000 32.000000 32.000000 32.000000 32.000000
32.000000 32.000000 32.000000 32.000000 32.000000 32.000000 32.000000 32.000000
32.000000 32.000000 32.000000 32.000000 32.000000 32.000000 32.000000 32.000000
32.000000 32.000000 32.000000 32.000000 32.000000 32.000000 32.000000 32.000000
32.000000 32.000000 32.000000 32.000000 32.000000 32.000000 32.000000 32.000000
32.000000 32.000000 32.000000 32.000000 32.000000 32.000000 32.000000 32.000000
32.000000 32.000000 32.000000 32.000000 32.000000 32.000000 32.000000 32.000000
32.000000 32.000000 32.000000 32.000000 32.000000 32.000000 32.000000 32.000000
32.000000 32.000000 32.000000 32.000000 32.000000
32.377778 32.343117 32.308911 32.275601 32.243588 32.213227 32.184812 32.158569
32.134652 32.113141 32.094051 32.077332 32.062883 32.050562 32.040194 32.031585
32.024532 32.018831 32.014284 32.010705 32.007926 32.005797 32.004188 32.002988
32.002106 32.001465 32.001007 32.000683 32.000457 32.000302 32.000197 32.000127
32.000081 32.000051 32.000031 32.000019 32.000012 32.000007 32.000004 32.000002
32.000001 32.000001 32.000000 32.000000 32.000000 32.000000 32.000000 32.000000
32.000000 32.000000 32.000000 32.000000 32.000000 32.000000 32.000000 32.000000
32.000000 32.000000 32.000000 32.000000 32.000000 32.000000 32.000000 32.000000
32.000000 32.000000 32.000000 32.000000 32.000000 32.000000 32.000000 32.000000
32.000000 32.000000 32.000000 32.000000 32.000000 32.000000 32.000000 32.000000
32.000000 32.000000 32.000000 32.000000 32.000000 32.000000 32.000000 32.000000
32.000000 32.000000 32.000000 32.000000 32.000000 32.000000 32.000000 32.000000
32.000000 32.000000 32.000000 32.000000 32.000000 32.000000 32.000000 32.000000
32.000000 32.000000 32.000000 32.000000 32.000000 32.000000 32.000000 32.000000
32.000000 32.000000 32.000000 32.000000 32.000000 32.000000 32.000000 32.000000
32.000000 32.000000 32.000000 32.000000 32.000000 32.000000 32.000000 32.000000
32.000000 32.000000 32.000000 32.000000 32.000000 32.000000 32.000000 32.000000
32.000000 32.000000 32.000000 32.000001 32.000001 32.000002 32.000004 32.000007
32.000012 32.000019 32.000031 32.000051 32.000081 32.000127 32.000197 32.000302
32.000457 32.000683 32.001007 32.001465 32.002106 32.002988 32.004188 32.005797
32.007926 32.010705 32.014284 32.018831 32.024532 32.031585 32.040194 32.050562
32.062883 32.077332 32.094051 32.113141 32.134652 32.158569 32.184812 32.213227
32.243588 32.275601 32.308911 32.343117 32.377778
32.755556 32.686233 32.617823 32.551201 32.487175 32.426454 32.369624 32.317139
32.269304 32.226283 32.188101 32.154663 32.125766 32.101123 32.080387 32.063170
32.049065 32.037662 32.028567 32.021410 32.015852 32.011594 32.008376 32.005977
32.004212 32.002931 32.002014 32.001366 32.000915 32.000605 32.000395 32.000254
32.000162 32.000101 32.000063 32.000038 32.000023 32.000014 32.000008 32.000005
32.000003 32.000001 32.000001 32.000000 32.000000 32.000000 32.000000 32.000000
32.000000 32.000000 32.000000 32.000000 32.000000 32.000000 32.000000 32.000000
32.000000 32.000000 32.000000 32.000000 32.000000 32.000000 32.000000 32.000000
32.000000 32.000000 32.000000 32.000000 32.000000 32.000000 32.000000 32.000000
32.000000 32.000000 32.000000 32.000000 32.000000 32.000000 32.000000 32.000000
32.000000 32.000000 32.000000 32.000000 32.000000 32.000000 32.000000 32.000000
32.000000 32.000000 32.000000 32.000000 32.000000 32.000000 32.000000 32.000000
32.000000 32.000000 32.000000 32.000000 32.000000 32.000000 32.000000 32.000000
32.000000 32.000000 32.000000 32.000000 32.000000 32.000000 32.000000 32.000000
32.000000 32.000000 32.000000 32.000000 32.000000 32.000000 32.000000 32.000000
32.000000 32.000000 32.000000 32.000000 32.000000 32.000000 32.000000 32.000000
32.000000 32.000000 32.000000 32.000000 32.000000 32.000000 32.000000 32.000000
32.000000 32.000000 32.000001 32.000001 32.000003 32.000005 32.000008 32.000014
32.000023 32.000038 32.000063 32.000101 32.000162 32.000254 32.000395 32.000605
32.000915 32.001366 32.002014 32.002931 32.004212 32.005977 32.008376 32.011594
32.015852 32.021410 32.028567 32.037662 32.049065 32.063170 32.080387 32.101123
32.125766 32.154663 32.188101 32.226283 32.269304 32.317139 32.369624 32.426454
32.487175 32.551201 32.617823 32.686233 32.755556
33.133333 33.029350 32.926734 32.826802 32.730763 32.639680 32.554437 32.475708
32.403956 32.339424 32.282152 32.231995 32.188649 32.151685 32.120581 32.094756
32.073597 32.056493 32.042851 32.032115 32.023778 32.017392 32.012565 32.008965
32.006318 32.004396 32.003021 32.002049 32.001372 32.000907 32.000592 32.000381
32.000242 32.000152 32.000094 32.000058 32.000035 32.000021 32.000012 32.000007
32.000004 32.000002 32.000001 32.000001 32.000000 32.000000 32.000000 32.000000
32.000000 32.000000 32.000000 32.000000 32.000000 32.000000 32.000000 32.000000
32.000000 32.000000 32.000000 32.000000 32.000000 32.000000 32.000000 32.000000
32.000000 32.000000 32.000000 32.000000 32.000000 32.000000 32.000000 32.000000
32.000000 32.000000 32.000000 32.000000 32.000000 32.000000 32.000000 32.000000
32.000000 32.000000 32.000000 32.000000 32.000000 32.000000 32.000000 32.000000
32.000000 32.000000 32.000000 32.000000 32.000000 32.000000 32.000000 32.000000
32.000000 32.000000 32.000000 32.000000 32.000000 32.000000 32.000000 32.000000
32.000000 32.000000 32.000000 32.000000 32.000000 32.000000 32.000000 32.000000
32.000000 32.000000 32.000000 32.000000 32.000000 32.000000 32.000000 32.000000
32.000000 32.000000 32.000000 32.000000 32.000000 32.000000 32.000000 32.000000
32.000000 32.000000 32.000000 32.000000 32.000000 32.000000 32.000000 32.000000
32.000000 32.000001 32.000001 32.000002 32.000004 32.000007 32.000012 32.000021
32.000035 32.000058 32.000094 32.000152 32.000242 32.000381 32.000592 32.000907
32.001372 32.002049 32.003021 32.004396 32.006318 32.008965 32.012565 32.017392
32.023778 32.032115 32.042851 32.056493 32.073597 32.094756 32.120581 32.151685
32.188649 32.231995 32.282152 32.339424 32.403956 32.475708 32.554437 32.639680
32.730763 32.826802 32.926734 33.029350 33.133333
33.511111 33.372466 33.235646 33.102402 32.974350 32.852907 32.739249 32.634278
32.538608 32.452566 32.376203 32.309326 32.251531 32.202246 32.160775 32.126341
32.098130 32.075324 32.057135 32.042819 32.031704 32.023189 32.016753 32.011954
32.008424 32.005862 32.004027 32.002732 32.001830 32.001210 32.000789 32.000508
32.000323 32.000203 32.000126 32.000077 32.000046 32.000027 32.000016 32.000009
32.000005 32.000003 32.000002 32.000001 32.000000 32.000000 32.000000 32.000000
32.000000 32.000000 32.000000 32.000000 32.000000 32.000000 32.000000 32.000000
32.000000 32.000000 32.000000 32.000000 32.000000 32.000000 32.000000 32.000000
32.000000 32.000000 32.000000 32.000000 32.000000 32.000000 32.000000 32.000000
32.000000 32.000000 32.000000 32.000000 32.000000 32.000000 32.000000 32.000000
32.000000 32.000000 32.000000 32.000000 32.000000 32.000000 32.000000 32.000000
32.000000 32.000000 32.000000 32.000000 32.000000 32.000000 32.000000 32.000000
32.000000 32.000000 32.000000 32.000000 32.000000 32.000000 32.000000 32.000000
32.000000 32.000000 32.000000 32.000000 32.000000 32.000000 32.000000 32.000000
32.000000 32.000000 32.000000 32.000000 32.000000 32.000000 32.000000 32.000000
32.000000 32.000000 32.000000 32.000000 32.000000 32.000000 32.000000 32.000000
32.000000 32.000000 32.000000 32.000000 32.000000 32.000000 32.000000 32.000000
32.000000 32.000001 32.000002 32.000003 32.000005 32.000009 32.000016 32.000027
32.000046 32.000077 32.000126 32.000203 32.000323 32.000508 32.000789 32.001210
32.001830 32.002732 32.004027 32.005862 32.008424 32.011954 32.016753 32.023189
32.031704 32.042819 32.057135 32.075324 32.098130 32.126341 32.160775 32.202246
32.251531 32.309326 32.376203 32.452566 32.538608 32.634278 32.739249 32.852907
32.974350 33.102402 33.235646 33.372466 33.511111
33.888889 33.715583 33.544557 33.378003 33.217938 33.066134 32.924061 32.792847
32.673260 32.565707 32.470254 32.386658 32.314414 32.252808 32.200968 32.157926
32.122662 32.094156 32.071418 32.053524 32.039630 32.028986 32.020941 32.014942
32.010529 32.007327 32.005034 32.003415 32.002287 32.001512 32.000987 32.000636
32.000404 32.000253 32.000157 32.000096 32.000058 32.000034 32.000020 32.000012
32.000007 32.000004 32.000002 32.000001 32.000001 32.000000 32.000000 32.000000
32.000000 32.000000 32.000000 32.000000 32.000000 32.000000 32.000000 32.000000
32.000000 32.000000 32.000000 32.000000 32.000000 32.000000 32.000000 32.000000
32.000000 32.000000 32.000000 32.000000 32.000000 32.000000 32.000000 32.000000
32.000000 32.000000 32.000000 32.000000 32.000000 32.000000 32.000000 32.000000
32.000000 32.000000 32.000000 32.000000 32.000000 32.000000 32.000000 32.000000
32.000000 32.000000 32.000000 32.000000 32.000000 32.000000 32.000000 32.000000
32.000000 32.000000 32.000000 32.000000 32.000000 32.000000 32.000000 32.000000
32.000000 32.000000 32.000000 32.000000 32.000000 32.000000 32.000000 32.000000
32.000000 32.000000 32.000000 32.000000 32.000000 32.000000 32.000000 32.000000
32.000000 32.000000 32.000000 32.000000 32.000000 32.000000 32.000000 32.000000
32.000000 32.000000 32.000000 32.000000 32.000000 32.000000 32.000000 32.000000
32.000001 32.000001 32.000002 32.000004 32.000007 32.000012 32.000020 32.000034
32.000058 32.000096 32.000157 32.000253 32.000404 32.000636 32.000987 32.001512
32.002287 32.003415 32.005034 32.007327 32.010529 32.014942 32.020941 32.028986
32.039630 32.053524 32.071418 32.094156 32.122662 32.157926 32.200968 32.252808
32.314414 32.386658 32.470254 32.565707 32.673260 32.792847 32.924061 33.066134
33.217938 33.378003 33.544557 33.715583 33.888889
34.266667 34.058700 33.853469 33.653604 33.461525 33.279361 33.108873 32.951417
32.807912 32.678848 32.564304 32.463989 32.377297 32.303369 32.241162 32.189511
32.147195 32.112987 32.085702 32.064229 32.047556 32.034783 32.025129 32.017931
32.012635 32.008792 32.006041 32.004098 32.002745 32.001815 32.001184 32.000763
32.000485 32.000304 32.000188 32.000115 32.000069 32.000041 32.000024 32.000014
32.000008 32.000004 32.000002 32.000001 32.000001 32.000000 32.000000 32.000000
32.000000 32.000000 32.000000 32.000000 32.000000 32.000000 32.000000 32.000000
32.000000 32.000000 32.000000 32.000000 32.000000 32.000000 32.000000 32.000000
32.000000 32.000000 32.000000 32.000000 32.000000 32.000000 32.000000 32.000000
32.000000 32.000000 32.000000 32.000000 32.000000 32.000000 32.000000 32.000000
32.000000 32.000000 32.000000 32.000000 32.000000 32.000000 32.000000 32.000000
32.000000 32.000000 32.000000 32.000000 32.000000 32.000000 32.000000 32.000000
32.000000 32.000000 32.000000 32.000000 32.000000 32.000000 32.000000 32.000000
32.000000 32.000000 32.000000 32.000000 32.000000 32.000000 32.000000 32.000000
32.000000 32.000000 32.000000 32.000000 32.000000 32.000000 32.000000 32.000000
32.000000 32.000000 32.000000 32.000000 32.000000 32.000000 32.000000 32.000000
32.000000 32.000000 32.000000 32.000000 32.000000 32.000000 32.000000 32.000000
32.000001 32.000001 32.000002 32.000004 32.000008 32.000014 32.000024 32.000041
32.000069 32.000115 32.000188 32.000304 32.000485 32.000763 32.001184 32.001815
32.002745 32.004098 32.006041 32.008792 32.012635 32.017931 32.025129 32.034783
32.047556 32.064229 32.085702 32.112987 32.147195 32.189511 32.241162 32.303369
32.377297 32.463989 32.564304 32.678848 32.807912 32.951417 33.108873 33.279361
33.461525 33.653604 33.853469 34.058700 34.266667
34.644444 34.401816 34.162380 33.929204 33.705113 33.492588 33.293686 33.109986
32.942564 32.791990 32.658355 32.541321 32.440180 32.353931 32.281356 32.221096
32.171727 32.131818 32.099985 32.074934 32.055482 32.040581 32.029318 32.020919
32.014741 32.010258 32.007048 32.004781 32.003202 32.002117 32.001382 32.000890
32.000566 32.000355 32.000220 32.000134 32.000081 32.000048 32.000028 32.000016
32.000009 32.000005 32.000003 32.000002 32.000001 32.000000 32.000000 32.000000
32.000000 32.000000 32.000000 32.000000 32.000000 32.000000 32.000000 32.000000
32.000000 32.000000 32.000000 32.000000 32.000000 32.000000 32.000000 32.000000
32.000000 32.000000 32.000000 32.000000 32.000000 32.000000 32.000000 32.000000
32.000000 32.000000 32.000000 32.000000 32.000000 32.000000 32.000000 32.000000
32.000000 32.000000 32.000000 32.000000 32.000000 32.000000 32.000000 32.000000
32.000000 32.000000 32.000000 32.000000 32.000000 32.000000 32.000000 32.000000
32.000000 32.000000 32.000000 32.000000 32.000000 32.000000 32.000000 32.000000
32.000000 32.000000 32.000000 32.000000 32.000000 32.000000 32.000000 32.000000
32.000000 32.000000 32.000000 32.000000 32.000000 32.000000 32.000000 32.000000
32.000000 32.000000 32.000000 32.000000 32.000000 32.000000 32.000000 32.000000
32.000000 32.000000 32.000000 32.000000 32.000000 32.000000 32.000000 32.000000
32.000001 32.000002 32.000003 32.000005 32.000009 32.000016 32.000028 32.000048
32.000081 32.000134 32.000220 32.000355 32.000566 32.000890 32.001382 32.002117
32.003202 32.004781 32.007048 32.010258 32.014741 32.020919 32.029318 32.040581
32.055482 32.074934 32.099985 32.131818 32.171727 32.221096 32.281356 32.353931
32.440180 32.541321 32.658355 32.791990 32.942564 33.109986 33.293686 33.492588
33.705113 33.929204 34.162380 34.401816 34.644444
35.022222 34.744933 34.471292 34.204805 33.948700 33.705814 33.478498 33.268556
33.077216 32.905131 32.752406 32.618652 32.503063 32.404493 32.321549 32.252681
32.196259 32.150649 32.114269 32.085639 32.063408 32.046378 32.033506 32.023908
32.016847 32.011723 32.008055 32.005464 32.003659 32.002419 32.001579 32.001017
32.000647 32.000406 32.000251 32.000153 32.000092 32.000055 32.000032 32.000019
32.000011 32.000006 32.000003 32.000002 32.000001 32.000001 32.000000 32.000000
32.000000 32.000000 32.000000 32.000000 32.000000 32.000000 32.000000 32.000000
32.000000 32.000000 32.000000 32.000000 32.000000 32.000000 32.000000 32.000000
32.000000 32.000000 32.000000 32.000000 32.000000 32.000000 32.000000 32.000000
32.000000 32.000000 32.000000 32.000000 32.000000 32.000000 32.000000 32.000000
32.000000 32.000000 32.000000 32.000000 32.000000 32.000000 32.000000 32.000000
32.000000 32.000000 32.000000 32.000000 32.000000 32.000000 32.000000 32.000000
32.000000 32.000000 32.000000 32.000000 32.000000 32.000000 32.000000 32.000000
32.000000 32.000000 32.000000 32.000000 32.000000 32.000000 32.000000 32.000000
32.000000 32.000000 32.000000 32.000000 32.000000 32.000000 32.000000 32.000000
32.000000 32.000000 32.000000 32.000000 32.000000 32.000000 32.000000 32.000000
32.000000 32.000000 32.000000 32.000000 32.000000 32.000000 32.000000 32.000001
32.000001 32.000002 32.000003 32.000006 32.000011 32.000019 32.000032 32.000055
32.000092 32.000153 32.000251 32.000406 32.000647 32.001017 32.001579 32.002419
32.003659 32.005464 32.008055 32.011723 32.016847 32.023908 32.033506 32.046378
32.063408 32.085639 32.114269 32.150649 32.196259 32.252681 32.321549 32.404493
32.503063 32.618652 32.752406 32.905131 33.077216 33.268556 33.478498 33.705814
33.948700 34.204805 34.471292 34.744933 35.022222
35.400000 35.088049 34.780203 34.480405 34.192288 33.919041 33.663310 33.427125
33.211868 33.018273 32.846456 32.695984 32.565946 32.455054 32.361743 32.284267
32.220792 32.169480 32.128553 32.096344 32.071334 32.052175 32.037694 32.026896
32.018953 32.013189 32.009062 32.006147 32.004117 32.002722 32.001776 32.001144
32.000727 32.000456 32.000282 32.000173 32.000104 32.000062 32.000036 32.000021
32.000012 32.000007 32.000004 32.000002 32.000001 32.000001 32.000000 32.000000
32.000000 32.000000 32.000000 32.000000 32.000000 32.000000 32.000000 32.000000
32.000000 32.000000 32.000000 32.000000 32.000000 32.000000 32.000000 32.000000
32.000000 32.000000 32.000000 32.000000 32.000000 32.000000 32.000000 32.000000
32.000000 32.000001 32.000001 32.000001 32.000001 32.000001 32.000001 32.000001
32.000001 32.000001 32.000001 32.000001 32.000001 32.000001 32.000001 32.000001
32.000001 32.000001 32.000001 32.000001 32.000001 32.000001 32.000001 32.000001
32.000001 32.000001 32.000001 32.000001 32.000001 32.000001 32.000001 32.000001
32.000001 32.000001 32.000001 32.000000 32.000000 32.000000 32.000000 32.000000
32.000000 32.000000 32.000000 32.000000 32.000000 32.000000 32.000000 32.000000
32.000000 32.000000 32.000000 32.000000 32.000000 32.000000 32.000000 32.000000
32.000000 32.000000 32.000000 32.000000 32.000000 32.000000 32.000000 32.000001
32.000001 32.000002 32.000004 32.000007 32.000012 32.000021 32.000036 32.000062
32.000104 32.000173 32.000282 32.000456 32.000727 32.001144 32.001776 32.002722
32.004117 32.006147 32.009062 32.013189 32.018953 32.026896 32.037694 32.052175
32.071334 32.096344 32.128553 32.169480 32.220792 32.284267 32.361743 32.455054
32.565946 32.695984 32.846456 33.018273 33.211868 33.427125 33.663310 33.919041
34.192288 34.480405 34.780203 35.088049 35.400000
35.777778 35.431166 35.089115 34.756006 34.435875 34.132268 33.848122 33.585695
33.346521 33.131414 32.940507 32.773315 32.628828 32.505616 32.401937 32.315852
32.245324 32.188311 32.142836 32.107049 32.079260 32.057972 32.041882 32.029885
32.021059 32.014654 32.010069 32.006830 32.004574 32.003024 32.001974 32.001271
32.000808 32.000507 32.000314 32.000192 32.000116 32.000069 32.000040 32.000023
32.000013 32.000008 32.000004 32.000002 32.000001 32.000001 32.000000 32.000000
32.000000 32.000000 32.000000 32.000000 32.000000 32.000000 32.000000 32.000000
32.000000 32.000000 32.000001 32.000001 32.000001 32.000001 32.000001 32.000001
32.000001 32.000001 32.000001 32.000001 32.000001 32.000001 32.000001 32.000001
32.000001 32.000001 32.000001 32.000001 32.000001 32.000001 32.000001 32.000001
32.000001 32.000001 32.000001 32.000001 32.000001 32.000001 32.000001 32.000001
32.000001 32.000001 32.000001 32.000001 32.000001 32.000001 32.000001 32.000001
32.000001 32.000001 32.000001 32.000001 32.000001 32.000001 32.000001 32.000001
32.000001 32.000001 32.000001 32.000001 32.000001 32.000001 32.000001 32.000001
32.000001 32.000001 32.000001 32.000001 32.000001 32.000001 32.000001 32.000001
32.000001 32.000001 32.000000 32.000000 32.000000 32.000000 32.000000 32.000000
32.000000 32.000000 32.000000 32.000000 32.000000 32.000000 32.000000 32.000001
32.000001 32.000002 32.000004 32.000008 32.000013 32.000023 32.000040 32.000069
32.000116 32.000192 32.000314 32.000507 32.000808 32.001271 32.001974 32.003024
32.004574 32.006830 32.010069 32.014654 32.021059 32.029885 32.041882 32.057972
32.079260 32.107049 32.142836 32.188311 32.245324 32.315852 32.401937 32.505616
32.628828 32.773315 32.940507 33.131414 33.346521 33.585695 33.848122 34.132268
34.435875 34.756006 35.089115 35.431166 35.777778
36.155556 35.774282 35.398026 35.031607 34.679463 34.345495 34.032935 33.744264
33.481173 33.244555 33.034558 32.850647 32.691711 32.556177 32.442130 32.347437
32.269857 32.207142 32.157120 32.117753 32.087186 32.063769 32.046071 32.032873
32.023165 32.016119 32.011075 32.007513 32.005032 32.003327 32.002171 32.001398
32.000889 32.000558 32.000345 32.000211 32.000127 32.000076 32.000044 32.000026
32.000015 32.000008 32.000005 32.000003 32.000001 32.000001 32.000000 32.000000
32.000000 32.000000 32.000000 32.000000 32.000000 32.000001 32.000001 32.000001
32.000001 32.000001 32.000001 32.000001 32.000001 32.000001 32.000001 32.000002
32.000002 32.000002 32.000002 32.000002 32.000002 32.000002 32.000002 32.000002
32.000002 32.000002 32.000002 32.000002 32.000002 32.000002 32.000002 32.000002
32.000002 32.000002 32.000002 32.000002 32.000002 32.000002 32.000002 32.000002
32.000002 32.000002 32.000002 32.000002 32.000002 32.000002 32.000002 32.000002
32.000002 32.000002 32.000002 32.000002 32.000002 32.000002 32.000002 32.000002
32.000002 32.000002 32.000002 32.000002 32.000002 32.000002 32.000002 32.000002
32.000002 32.000002 32.000002 32.000002 32.000002 32.000001 32.000001 32.000001
32.000001 32.000001 32.000001 32.000001 32.000001 32.000001 32.000001 32.000000
32.000000 32.000000 32.000000 32.000000 32.000000 32.000000 32.000000 32.000001
32.000001 32.000003 32.000005 32.000008 32.000015 32.000026 32.000044 32.000076
32.000127 32.000211 32.000345 32.000558 32.000889 32.001398 32.002171 32.003327
32.005032 32.007513 32.011075 32.016119 32.023165 32.032873 32.046071 32.063769
32.087186 32.117753 32.157120 32.207142 32.269857 32.347437 32.442130 32.556177
32.691711 32.850647 33.034558 33.244555 33.481173 33.744264 34.032935 34.345495
34.679463 35.031607 35.398026 35.774282 36.155556
36.533333 36.117399 35.706938 35.307207 34.923051 34.558721 34.217747 33.902834
33.615825 33.357697 33.128608 32.927978 32.754594 32.606739 32.482324 32.379022
32.294389 32.225973 32.171404 32.128458 32.095112 32.069567 32.050259 32.035862
32.025271 32.017585 32.012082 32.008196 32.005489 32.003629 32.002368 32.001525
32.000970 32.000608 32.000377 32.000230 32.000139 32.000082 32.000048 32.000028
32.000016 32.000009 32.000005 32.000003 32.000002 32.000001 32.000001 32.000001
32.000001 32.000001 32.000001 32.000001 32.000001 32.000001 32.000001 32.000001
32.000002 32.000002 32.000002 32.000002 32.000002 32.000003 32.000003 32.000003
32.000003 32.000003 32.000004 32.000004 32.000004 32.000004 32.000004 32.000004
32.000004 32.000004 32.000004 32.000004 32.000004 32.000004 32.000004 32.000004
32.000004 32.000004 32.000004 32.000004 32.000004 32.000004 32.000004 32.000004
32.000004 32.000004 32.000004 32.000004 32.000004 32.000004 32.000004 32.000004
32.000004 32.000004 32.000004 32.000004 32.000004 32.000004 32.000004 32.000004
32.000004 32.000004 32.000004 32.000004 32.000004 32.000004 32.000004 32.000004
32.000004 32.000004 32.000003 32.000003 32.000003 32.000003 32.000003 32.000002
32.000002 32.000002 32.000002 32.000002 32.000001 32.000001 32.000001 32.000001
32.000001 32.000001 32.000001 32.000000 32.000000 32.000000 32.000001 32.000001
32.000002 32.000003 32.000005 32.000009 32.000016 32.000028 32.000048 32.000082
32.000139 32.000230 32.000377 32.000608 32.000970 32.001525 32.002368 32.003629
32.005489 32.008196 32.012082 32.017585 32.025271 32.035862 32.050259 32.069567
32.095112 32.128458 32.171404 32.225973 32.294389 32.379022 32.482324 32.606739
32.754594 32.927978 33.128608 33.357697 33.615825 33.902834 34.217747 34.558721
34.923051 35.307207 35.706938 36.117399 36.533333
36.911111 36.460516 36.015849 35.582808 35.166638 34.771948 34.402559 34.061403
33.750477 33.470838 33.222659 33.005310 32.817477 32.657300 32.522518 32.410607
32.318922 32.244805 32.185687 32.139163 32.103038 32.075364 32.054447 32.038850
32.027377 32.019050 32.013089 32.008879 32.005947 32.003932 32.002566 32.001653
32.001051 32.000659 32.000408 32.000249 32.000150 32.000089 32.000052 32.000030
32.000017 32.000010 32.000006 32.000003 32.000002 32.000001 32.000001 32.000001
32.000001 32.000001 32.000001 32.000001 32.000002 32.000002 32.000002 32.000003
32.000003 32.000004 32.000004 32.000004 32.000005 32.000005 32.000006 32.000006
32.000006 32.000007 32.000007 32.000007 32.000007 32.000008 32.000008 32.000008
32.000008 32.000008 32.000008 32.000008 32.000008 32.000008 32.000008 32.000008
32.000008 32.000008 32.000008 32.000008 32.000008 32.000008 32.000008 32.000008
32.000008 32.000008 32.000008 32.000008 32.000008 32.000008 32.000008 32.000008
32.000008 32.000008 32.000008 32.000008 32.000008 32.000008 32.000008 32.000008
32.000008 32.000008 32.000008 32.000008 32.000008 32.000008 32.000008 32.000007
32.000007 32.000007 32.000007 32.000006 32.000006 32.000006 32.000005 32.000005
32.000004 32.000004 32.000004 32.000003 32.000003 32.000002 32.000002 32.000002
32.000001 32.000001 32.000001 32.000001 32.000001 32.000001 32.000001 32.000001
32.000002 32.000003 32.000006 32.000010 32.000017 32.000030 32.000052 32.000089
32.000150 32.000249 32.000408 32.000659 32.001051 32.001653 32.002566 32.003932
32.005947 32.008879 32.013089 32.019050 32.027377 32.038850 32.054447 32.075364
32.103038 32.139163 32.185687 32.244805 32.318922 32.410607 32.522518 32.657300
32.817477 33.005310 33.222659 33.470838 33.750477 34.061403 34.402559 34.771948
35.166638 35.582808 36.015849 36.460516 36.911111
37.288889 36.803632 36.324761 35.858408 35.410226 34.985175 34.587371 34.219973
33.885129 33.583980 33.316710 33.082641 32.880360 32.707862 32.562711 32.442193
32.343454 32.263636 32.199971 32.149868 32.110964 32.081161 32.058635 32.041839
32.029483 32.020516 32.014096 32.009562 32.006404 32.004234 32.002763 32.001780
32.001131 32.000710 32.000439 32.000268 32.000162 32.000096 32.000057 32.000033
32.000019 32.000011 32.000006 32.000004 32.000002 32.000002 32.000001 32.000001
32.000002 32.000002 32.000002 32.000003 32.000003 32.000004 32.000005 32.000005
32.000006 32.000007 32.000008 32.000008 32.000009 32.000010 32.000011 32.000011
32.000012 32.000013 32.000013 32.000014 32.000014 32.000015 32.000015 32.000015
32.000016 32.000016 32.000016 32.000016 32.000016 32.000016 32.000016 32.000016
32.000016 32.000016 32.000016 32.000016 32.000016 32.000016 32.000016 32.000016
32.000016 32.000016 32.000016 32.000016 32.000016 32.000016 32.000016 32.000016
32.000016 32.000016 32.000016 32.000016 32.000016 32.000016 32.000016 32.000016
32.000016 32.000016 32.000016 32.000016 32.000015 32.000015 32.000015 32.000014
32.000014 32.000013 32.000013 32.000012 32.000011 32.000011 32.000010 32.000009
32.000008 32.000008 32.000007 32.000006 32.000005 32.000005 32.000004 32.000003
32.000003 32.000002 32.000002 32.000002 32.000001 32.000001 32.000001 32.000001
32.000002 32.000004 32.000006 32.000011 32.000019 32.000033 32.000056 32.000096
32.000162 32.000268 32.000439 32.000710 32.001131 32.001780 32.002763 32.004234
32.006404 32.009562 32.014096 32.020516 32.029483 32.041839 32.058635 32.081161
32.110964 32.149868 32.199971 32.263636 32.343454 32.442193 32.562711 32.707862
32.880360 33.082641 33.316710 33.583980 33.885129 34.219973 34.587371 34.985175
35.410226 35.858408 36.324761 36.803632 37.288889
37.666667 37.146749 36.633672 36.134009 35.653813 35.198402 34.772184 34.378542
34.019781 33.697121 33.410761 33.159973 32.943243 32.758424 32.602905 32.473778
32.367987 32.282467 32.214255 32.160573 32.118890 32.086958 32.062824 32.044827
32.031588 32.021981 32.015103 32.010245 32.006862 32.004536 32.002960 32.001907
32.001212 32.000761 32.000471 32.000288 32.000173 32.000103 32.000061 32.000035
32.000020 32.000012 32.000007 32.000004 32.000003 32.000002 32.000002 32.000003
32.000003 32.000004 32.000004 32.000005 32.000006 32.000008 32.000009 32.000010
32.000012 32.000013 32.000015 32.000016 32.000018 32.000019 32.000021 32.000022
32.000023 32.000025 32.000025 32.000027 32.000027 32.000028 32.000029 32.000029
32.000030 32.000030 32.000030 32.000031 32.000031 32.000031 32.000031 32.000031
32.000031 32.000031 32.000031 32.000031 32.000031 32.000031 32.000031 32.000031
32.000031 32.000031 32.000031 32.000031 32.000031 32.000031 32.000031 32.000031
32.000031 32.000031 32.000031 32.000031 32.000031 32.000031 32.000031 32.000031
32.000031 32.000030 32.000030 32.000030 32.000029 32.000029 32.000028 32.000027
32.000027 32.000025 32.000025 32.000023 32.000022 32.000021 32.000019 32.000018
32.000016 32.000015 32.000013 32.000012 32.000010 32.000009 32.000008 32.000006
32.000005 32.000004 32.000004 32.000003 32.000002 32.000002 32.000002 32.000002
32.000003 32.000004 32.000007 32.000012 32.000020 32.000035 32.000061 32.000103
32.000173 32.000288 32.000471 32.000760 32.001212 32.001907 32.002960 32.004536
32.006862 32.010245 32.015103 32.021981 32.031588 32.044827 32.062824 32.086958
32.118890 32.160573 32.214255 32.282467 32.367987 32.473778 32.602905 32.758424
32.943243 33.159973 33.410761 33.697121 34.019781 34.378542 34.772184 35.198402
35.653813 36.134009 36.633672 37.146749 37.666667
38.044444 37.489865 36.942583 36.409609 35.897401 35.411629 34.956996 34.537112
34.154433 33.810262 33.504811 33.237304 33.006125 32.808985 32.643099 32.505363
32.392519 32.301298 32.228538 32.171278 32.126816 32.092756 32.067012 32.047816
32.033694 32.023446 32.016110 32.010928 32.007319 32.004839 32.003158 32.002034
32.001293 32.000811 32.000502 32.000307 32.000185 32.000110 32.000065 32.000038
32.000022 32.000013 32.000008 32.000005 32.000004 32.000004 32.000004 32.000005
32.000006 32.000007 32.000008 32.000010 32.000012 32.000014 32.000017 32.000019
32.000022 32.000025 32.000028 32.000030 32.000033 32.000036 32.000039 32.000041
32.000044 32.000046 32.000048 32.000050 32.000051 32.000053 32.000054 32.000055
32.000056 32.000056 32.000057 32.000057 32.000058 32.000058 32.000058 32.000058