# vtk DataFile Version 3.0
Steady-state temperature (Jacobi)
ASCII
DATASET STRUCTURED_POINTS
DIMENSIONS 181 181 1
ORIGIN 0.0 0.0 0.0
SPACING 0.05 0.05 1.0
POINT_DATA 32761
SCALARS Temperature float 1
LOOKUP_TABLE default
32.000000 32.000000 32.000000 32.000000 32.000000 32.000000 32.000000 32.000000
32.000000 32.000000 32.000000 32.000000 32.000000 32.000000 32.000000 32.000000
32.000000 32.000000 32.000000 32.000000 32.000000 32.000000 32.000000 32.000000
32.000000 32.000000 32.000000 32.000000 32.000000 32.000000 32.000000 32.000000
32.000000 32.000000 32.000000 32.000000 32.000000 32.000000 32.000000 32.000000
32.000000 32.000000 32.000000 32.000000 32.000000 32.000000 32.000000 32.000000
32.000000 32.000000 32.000000 32.000000 32.000000 32.000000 32.000000 32.000000
32.000000 32.000000 32.000000 32.000000 32.000000 32.000000 32.000000 32.000000
32.000000 32.000000 32.000000 32.000000 32.000000 32.000000 32.000000 32.000000
32.000000 32.000000 32.000000 32.000000 32.000000 32.000000 32.000000 32.000000
32.000000 32.000000 32.000000 32.000000 32.000000 32.000000 32.000000 32.000000
32.000000 32.000000 32.000000 32.000000 32.000000 32.000000 32.000000 32.000000
32.000000 32.000000 32.000000 32.000000 32.000000 32.000000 32.000000 32.000000
32.000000 32.000000 32.000000 32.000000 32.000000 32.000000 32.000000 32.000000
32.000000 32.000000 32.000000 32.000000 32.000000 32.000000 32.000000 32.000000
32.000000 32.000000 32.000000 32.000000 32.000000 32.000000 32.000000 32.000000
32.000000 32.000000 32.000000 32.000000 32.000000 32.000000 32.000000 32.000000
32.000000 32.000000 32.000000 32.000000 32.000000 32.000000 32.000000 32.000000
32.000000 32.000000 32.000000 32.000000 32.000000 32.000000 32.000000 32.000000
32.000000 32.000000 32.000000 32.000000 32.000000 32.000000 32.000000 32.000000
32.000000 32.000000 32.000000 32.000000 32.000000 32.000000 32.000000 32.000000
32.000000 32.000000 32.000000 32.000000 32.000000 32.000000 32.000000 32.000000
32.000000 32.000000 32.000000 32.000000 32.000000
32.377778 32.394048 32.410339 32.426672 32.443064 32.459541 32.476116 32.492816
32.509651 32.526650 32.543819 32.561188 32.578760 32.596565 32.614601 32.632901
32.651457 32.670302 32.689424 32.708856 32.728581 32.748631 32.768986 32.789677
32.810676 32.832016 32.853664 32.875650 32.897939 32.920556 32.943462 32.966683
32.990172 33.013955 33.037980 33.062270 33.086770 33.111501 33.136404 33.161496
33.186717 33.212080 33.237523 33.263058 33.288618 33.314214 33.339779 33.365320
33.390768 33.416131 33.441339 33.466397 33.491236 33.515861 33.540203 33.564266
33.587982 33.611356 33.634321 33.656882 33.678975 33.700605 33.721711 33.742298
33.762310 33.781750 33.800567 33.818766 33.836299 33.853170 33.869337 33.884805
33.899534 33.913532 33.926762 33.939231 33.950909 33.961801 33.971883 33.981159
33.989607 33.997234 34.004020 34.009972 34.015075 34.019333 34.022736 34.025286
34.026979 34.027815 34.027791 34.026910 34.025171 34.022574 34.019125 34.014821
34.009671 34.003673 33.996840 33.989167 33.980671 33.971349 33.961220 33.950281
33.938556 33.926040 33.912764 33.898720 33.883944 33.868431 33.852219 33.835302
33.817726 33.799484 33.780624 33.761142 33.741091 33.720465 33.699322 33.677658
33.655532 33.632941 33.609948 33.586550 33.562813 33.538732 33.514376 33.489742
33.464898 33.439839 33.414637 33.389285 33.363854 33.338337 33.312804 33.287246
33.261732 33.236253 33.210874 33.185584 33.160447 33.135449 33.110651 33.086038
33.061667 33.037519 33.013649 32.990036 32.966730 32.943708 32.921016 32.898628
32.876587 32.854865 32.833499 32.812459 32.791778 32.771426 32.751429 32.731757
32.712430 32.693418 32.674737 32.656355 32.638285 32.620492 32.602987 32.585735
32.568740 32.551970 32.535424 32.519071 32.502906 32.486899 32.471041 32.455303
32.439673 32.424124 32.408641 32.393198 32.377778
32.755556 32.788112 32.820712 32.853391 32.886197 32.919161 32.952335 32.985743
33.019441 33.053445 33.087814 33.122556 33.157734 33.193346 33.229457 33.266057
33.303211 33.340900 33.379189 33.418051 33.457550 33.497649 33.538411 33.579789
33.621845 33.664521 33.707877 33.751846 33.796485 33.841717 33.887595 33.934033
33.981081 34.028644 34.076766 34.125344 34.174419 34.223879 34.273761 34.323946
34.374464 34.425192 34.476157 34.527228 34.578427 34.629622 34.680830 34.731914
34.782890 34.833618 34.884111 34.934231 34.983985 35.033237 35.081995 35.130122
35.177627 35.224374 35.270373 35.315495 35.359747 35.403005 35.445279 35.486451
35.526531 35.565409 35.603096 35.639490 35.674603 35.708341 35.740717 35.771648
35.801145 35.829133 35.855627 35.880559 35.903944 35.925723 35.945910 35.964456
35.981373 35.996621 36.010211 36.022110 36.032328 36.040840 36.047654 36.052753
36.056142 36.057813 36.057767 36.056004 36.052522 36.047331 36.040425 36.031819
36.021509 36.009517 35.995834 35.980493 35.963482 35.944843 35.924562 35.902689
35.879211 35.854185 35.827598 35.799517 35.769928 35.738906 35.706439 35.672611
35.637410 35.600930 35.563158 35.524198 35.484038 35.442789 35.400442 35.357114
35.312797 35.267615 35.221561 35.174764 35.127217 35.079055 35.030269 34.980998
34.931233 34.881114 34.830631 34.779925 34.728984 34.677948 34.626802 34.575685
34.524578 34.473618 34.422782 34.372201 34.321850 34.271854 34.222183 34.172957
34.124141 34.075847 34.028035 33.980811 33.934130 33.888090 33.842640 33.797869
33.753723 33.710283 33.667490 33.625415 33.583997 33.543296 33.503250 33.463908
33.425206 33.387184 33.349777 33.313015 33.276831 33.241247 33.206197 33.171692
33.137667 33.104125 33.071001 33.038291 33.005933 32.973912 32.942171 32.910687
32.879405 32.848297 32.817311 32.786413 32.755556
33.133333 33.182210 33.231146 33.280211 33.329454 33.378951 33.428743 33.478911
33.529485 33.580553 33.632131 33.684313 33.737102 33.790595 33.844782 33.899762
33.955514 34.012134 34.069589 34.127975 34.187244 34.247492 34.308656 34.370830
34.433935 34.498063 34.563121 34.629195 34.696179 34.764153 34.832998 34.902789
34.973391 35.044873 35.117089 35.190100 35.263748 35.338087 35.412947 35.488377
35.564194 35.640443 35.716931 35.793696 35.870539 35.947490 36.024346 36.101131
36.177640 36.253890 36.329675 36.405009 36.479684 36.553714 36.626892 36.699230
36.770524 36.840787 36.909821 36.977637 37.044046 37.109060 37.172498 37.234373
37.294517 37.352941 37.409491 37.464180 37.516864 37.567560 37.616136 37.662609
37.706862 37.748914 37.788659 37.826117 37.861196 37.893915 37.924196 37.952056
37.977431 38.000337 38.020720 38.038594 38.053919 38.066705 38.076925 38.084585
38.089667 38.092177 38.092108 38.089460 38.084239 38.076441 38.066083 38.053158
38.037694 38.019680 37.999158 37.976112 37.950597 37.922597 37.892175 37.859316
37.824097 37.786499 37.746614 37.704423 37.660032 37.613421 37.564710 37.513880
37.461064 37.406245 37.349569 37.291020 37.230757 37.168767 37.105219 37.040101
36.973594 36.905688 36.836571 36.766235 36.694876 36.622485 36.549266 36.475207
36.400517 36.325183 36.249415 36.173198 36.096742 36.020028 35.943265 35.866430
35.789727 35.713128 35.636833 35.560805 35.485239 35.410092 35.335549 35.261561
35.188302 35.115717 35.043968 34.972993 34.902943 34.833748 34.765547 34.698263
34.632021 34.566739 34.502529 34.439301 34.377154 34.315995 34.255907 34.196793
34.138722 34.081595 34.025466 33.970235 33.915942 33.862485 33.809891 33.758059
33.707001 33.656619 33.606912 33.557785 33.509223 33.461136 33.413496 33.366219
33.319266 33.272557 33.226045 33.179656 33.133333
33.511111 33.576354 33.641682 33.707170 33.772914 33.838975 33.905458 33.972409
34.039943 34.108091 34.176973 34.246604 34.317109 34.388488 34.460867 34.534229
34.608702 34.684252 34.761007 34.838913 34.918098 34.998489 35.080212 35.163173
35.247495 35.333066 35.420002 35.508172 35.597688 35.688397 35.780405 35.873541
35.967902 36.063299 36.159821 36.257263 36.355703 36.454920 36.554985 36.655661
36.757009 36.858780 36.961028 37.063491 37.166214 37.268928 37.371670 37.474165
37.576442 37.678223 37.779532 37.880089 37.979913 38.078728 38.176549 38.273103
38.368403 38.462184 38.554458 38.644969 38.733731 38.820497 38.905282 38.987855
39.068232 39.146195 39.221764 39.294736 39.365134 39.432773 39.497676 39.559677
39.618800 39.674897 39.727993 39.777959 39.824818 39.868459 39.908907 39.946065
39.979957 40.010505 40.037729 40.061566 40.082033 40.099084 40.112732 40.122947
40.129735 40.133082 40.132990 40.129459 40.122487 40.112088 40.098256 40.081019
40.060367 40.036345 40.008936 39.978202 39.944123 39.906778 39.866144 39.822316
39.775270 39.725118 39.671836 39.615553 39.556246 39.494063 39.428979 39.361161
39.290587 39.217442 39.141705 39.063577 38.983041 38.900315 38.815383 38.728478
38.639587 38.548955 38.456570 38.362692 38.267306 38.170682 38.072806 37.973953
37.874108 37.773552 37.672264 37.570528 37.468321 37.365922 37.263305 37.160746
37.058209 36.955968 36.853977 36.752501 36.651488 36.551191 36.451548 36.352800
36.254877 36.158005 36.062105 35.967386 35.873760 35.781421 35.690270 35.600485
35.511958 35.424846 35.339038 35.254671 35.171626 35.090020 35.009731 34.930856
34.853267 34.777044 34.702056 34.628363 34.555832 34.484506 34.414251 34.345090
34.276894 34.209667 34.143281 34.077725 34.012874 33.948701 33.885089 33.821993
33.759304 33.696963 33.634868 33.572948 33.511111
33.888889 33.970565 34.052341 34.134332 34.216622 34.299337 34.382546 34.466386
34.550906 34.636252 34.722455 34.809667 34.897899 34.987308 35.077883 35.169785
35.262981 35.357633 35.453684 35.551296 35.650390 35.751124 35.853396 35.957359
36.062887 36.170129 36.278933 36.389441 36.501478 36.615176 36.730337 36.847086
36.965197 37.084788 37.205611 37.327771 37.451001 37.575394 37.700663 37.826890
37.953772 38.081378 38.209390 38.337866 38.466477 38.595272 38.723909 38.852429
38.980486 39.108111 39.234956 39.361044 39.486029 39.609930 39.732403 39.853464
39.972776 40.090355 40.205874 40.319347 40.430460 40.539230 40.645358 40.748863
40.849465 40.947183 41.041757 41.133212 41.221307 41.306068 41.387279 41.464968
41.538938 41.609222 41.675646 41.738242 41.796858 41.851526 41.902117 41.948660
41.991049 42.029309 42.063355 42.093209 42.118804 42.140158 42.157225 42.170017
42.178505 42.182697 42.182582 42.178161 42.169443 42.156421 42.139125 42.117540
42.091714 42.061629 42.027352 41.988859 41.946238 41.899462 41.848638 41.793737
41.734888 41.672059 41.605404 41.534888 41.460688 41.382771 41.301335 41.216350
41.128036 41.036365 40.941580 40.843657 40.742857 40.639160 40.532849 40.423906
40.312630 40.199007 40.083352 39.965650 39.846232 39.725082 39.602541 39.478592
39.353583 39.227494 39.100678 38.973109 38.845139 38.716739 38.588258 38.459658
38.331281 38.203081 38.075391 37.948154 37.821693 37.695938 37.571198 37.447392
37.324811 37.203362 37.083318 36.964575 36.847385 36.731631 36.617545 36.504999
36.394202 36.285017 36.177627 36.071889 35.967961 35.865691 35.765215 35.666375
35.569282 35.473773 35.379936 35.287604 35.196843 35.107485 35.019570 34.932934
34.847594 34.763388 34.680311 34.598206 34.517047 34.436683 34.357069 34.278062
34.199598 34.121543 34.043818 33.966298 33.888889
34.266667 34.364852 34.463167 34.561722 34.660664 34.760084 34.860141 34.960906
35.062550 35.165122 35.268800 35.373612 35.479742 35.587191 35.696151 35.806596
35.918720 36.032471 36.148042 36.265353 36.384596 36.505663 36.628742 36.753695
36.880705 37.009604 37.140569 37.273401 37.408268 37.544943 37.683583 37.823932
37.966135 38.109911 38.255389 38.402263 38.550649 38.700215 38.851066 39.002847
39.155647 39.309093 39.463260 39.617760 39.772654 39.927540 40.082469 40.237028
40.391259 40.544743 40.697512 40.849147 40.999673 41.148674 41.296169 41.441749
41.585430 41.726815 41.865918 42.002356 42.136144 42.266916 42.394690 42.519120
42.640227 42.757687 42.871527 42.981445 43.087472 43.189334 43.287063 43.380413
43.469419 43.553862 43.633777 43.708973 43.779487 43.845153 43.906006 43.961906
44.012889 44.058837 44.099782 44.135631 44.166411 44.192053 44.212576 44.227936
44.238143 44.243177 44.243039 44.237732 44.227249 44.211615 44.190816 44.164898
44.133842 44.097716 44.056494 44.010268 43.959007 43.902828 43.841696 43.775751
43.704958 43.629484 43.549290 43.464572 43.375290 43.281667 43.183667 43.081538
42.975248 42.865072 42.750980 42.633274 42.511928 42.387270 42.259276 42.128297
41.994314 41.857697 41.718428 41.576898 41.433089 41.287404 41.139826 40.990769
40.840213 40.688579 40.535843 40.382427 40.228301 40.073888 39.919146 39.764494
39.609880 39.455714 39.301933 39.148932 38.996636 38.845424 38.695208 38.546347
38.398739 38.252722 38.108178 37.965423 37.824324 37.685172 37.547822 37.412535
37.279154 37.147914 37.018646 36.891556 36.766465 36.643551 36.522626 36.403838
36.286995 36.172215 36.059300 35.948341 35.839139 35.731754 35.625988 35.521874
35.419216 35.318021 35.218095 35.119422 35.021814 34.925229 34.829489 34.734530
34.640183 34.546362 34.452912 34.359727 34.266667
34.644444 34.759238 34.874174 34.989411 35.105072 35.221331 35.338288 35.456134
35.574940 35.694911 35.816092 35.938697 36.062741 36.188446 36.315797 36.445021
36.576073 36.709179 36.844262 36.981550 37.120931 37.262630 37.406501 37.552763
37.701238 37.852136 38.005243 38.160761 38.318441 38.478474 38.640577 38.804927
38.971210 39.139586 39.309712 39.481730 39.655269 39.830455 40.006888 40.184679
40.363403 40.543154 40.723488 40.904482 41.085673 41.267125 41.448362 41.629435
41.809858 41.989670 42.168384 42.346028 42.522114 42.696665 42.869199 43.039734
43.207797 43.373407 43.536103 43.695903 43.852368 44.005517 44.154932 44.300636
44.442238 44.579763 44.712849 44.841526 44.965461 45.084689 45.198909 45.308158
45.412166 45.510976 45.604348 45.692326 45.774702 45.851519 45.922600 45.987986
46.047530 46.101269 46.149085 46.191010 46.226953 46.256938 46.280903 46.298864
46.310783 46.316669 46.316509 46.310304 46.298066 46.279785 46.255500 46.225194
46.188930 46.146683 46.098545 46.044482 45.984614 45.918904 45.847499 45.770357
45.687657 45.599354 45.505659 45.406527 45.302198 45.192631 45.078097 44.958558
44.834317 44.705339 44.571959 44.434147 44.292269 44.146298 43.996628 43.843237
43.686546 43.526535 43.363648 43.197868 43.029657 42.858999 42.686370 42.511752
42.335634 42.157991 41.979317 41.799583 41.619284 41.438381 41.257364 41.076184
40.895322 40.714717 40.534836 40.355603 40.177469 40.000342 39.824652 39.650289
39.477661 39.306641 39.137610 38.970423 38.805434 38.642480 38.481885 38.323472
38.167531 38.013870 37.862748 37.713961 37.567732 37.423848 37.282497 37.143458
37.006885 36.872551 36.740575 36.610727 36.483093 36.357441 36.233826 36.112015
35.992032 35.873649 35.756858 35.641438 35.527353 35.414389 35.302483 35.191432
35.081147 34.971439 34.862195 34.753242 34.644444
35.022222 35.153729 35.285410 35.417416 35.549940 35.683108 35.817132 35.952110
36.088269 36.225677 36.364574 36.504995 36.647191 36.791163 36.937168 37.085173
37.235438 37.387894 37.542801 37.700053 37.859907 38.022221 38.187245 38.354797
38.525121 38.697996 38.873655 39.051837 39.232763 39.416133 39.602155 39.790489
39.981326 40.174292 40.369558 40.566716 40.765917 40.966722 41.169263 41.373069
41.578255 41.784323 41.991368 42.198872 42.406912 42.614950 42.823048 43.030657
43.237823 43.443989 43.649190 43.852867 44.055046 44.255170 44.453261 44.648770
44.841714 45.031561 45.218326 45.401496 45.581089 45.756614 45.928092 46.095062
46.257550 46.415123 46.567815 46.715227 46.857396 46.993959 47.124960 47.250072
47.369342 47.482479 47.589534 47.690252 47.784683 47.872610 47.954081 48.028913
48.097153 48.158648 48.213440 48.261410 48.302593 48.336901 48.364358 48.384906
48.398562 48.405297 48.405115 48.398017 48.383997 48.363085 48.335263 48.300591
48.259042 48.210705 48.155545 48.093682 48.025074 47.949873 47.868031 47.779735
47.684933 47.583847 47.476424 47.362919 47.243285 47.117810 46.986450 46.849532
46.707014 46.559260 46.406233 46.248333 46.085529 45.918255 45.746486 45.570686
45.390834 45.207426 45.020442 44.830401 44.637288 44.441639 44.243440 44.043241
43.841024 43.637350 43.432194 43.226120 43.019095 42.811682 42.603835 42.396110
42.188446 41.981388 41.774860 41.569387 41.364876 41.161831 40.960139 40.760279
40.562117 40.366106 40.172090 39.980488 39.791129 39.604396 39.420099 39.238585
39.059646 38.883594 38.710204 38.539749 38.371992 38.207166 38.045023 37.885759
37.729115 37.575248 37.423895 37.275173 37.128817 36.984906 36.843174 36.703665
36.566115 36.430532 36.296658 36.164466 36.033709 35.904326 35.776081 35.648884
35.522511 35.396844 35.271677 35.146866 35.022222
35.400000 35.548350 35.696884 35.845810 35.995285 36.145538 36.296697 36.449010
36.602572 36.757645 36.914291 37.072785 37.233152 37.395675 37.560340 37.727437
37.896912 38.069057 38.243776 38.421360 38.601670 38.784994 38.971148 39.160414
39.352564 39.547867 39.746053 39.947377 40.151526 40.358739 40.568659 40.781507
40.996883 41.214990 41.435387 41.658256 41.883118 42.110132 42.338785 42.569213
42.800871 43.033873 43.267648 43.502289 43.737200 43.972455 44.207442 44.442217
44.676156 44.909300 45.141020 45.371345 45.599646 45.825944 46.049617 46.270682
46.488528 46.703170 46.914018 47.121087 47.323812 47.522212 47.715749 47.904449
48.087809 48.265858 48.438132 48.604668 48.765039 48.919290 49.067034 49.208321
49.342807 49.470547 49.591236 49.704931 49.811369 49.910607 50.002421 50.086867
50.163757 50.233142 50.294872 50.348992 50.395385 50.434086 50.465015 50.488194
50.503577 50.511174 50.510971 50.502966 50.487176 50.463589 50.432252 50.393141
50.346338 50.291808 50.229666 50.159869 50.082565 49.997706 49.905478 49.805824
49.698972 49.584863 49.463761 49.335610 49.200715 49.059020 48.910874 48.756226
48.595463 48.428542 48.255893 48.077476 47.893763 47.704721 47.510858 47.312149
47.109134 46.901796 46.690704 46.475843 46.257809 46.036588 45.812794 45.586411
45.358070 45.127747 44.896080 44.663039 44.429261 44.194705 43.960003 43.725099
43.490615 43.256475 43.023286 42.790952 42.560057 42.330485 42.102791 41.876839
41.653153 41.431572 41.212587 40.996015 40.782307 40.571261 40.363288 40.158164
39.956259 39.757331 39.561706 39.369126 39.179874 38.993677 38.810774 38.630882
38.454196 38.280423 38.109715 37.941774 37.776710 37.614223 37.454380 37.296884
37.141760 36.988715 36.837737 36.688540 36.541074 36.395065 36.250428 36.106902
35.964370 35.822587 35.681406 35.540602 35.400000
35.777778 35.943102 36.108646 36.274600 36.441209 36.608633 36.777138 36.946850
37.118054 37.290838 37.465504 37.642099 37.820937 38.002024 38.185681 38.371872
38.560920 38.752744 38.947669 39.145568 39.346760 39.551071 39.758815 39.969767
40.184232 40.401936 40.623169 40.847610 41.075531 41.306563 41.540959 41.778301
42.018822 42.262057 42.508216 42.756790 43.007965 43.261191 43.516627 43.773687
44.032505 44.292461 44.553665 44.815467 45.077956 45.340460 45.603044 45.865021
46.126439 46.386599 46.645536 46.902546 47.157654 47.410160 47.660081 47.906730
48.150118 48.389578 48.625120 48.856101 49.082536 49.303813 49.519950 49.730370
49.935102 50.133607 50.325922 50.511551 50.690539 50.862436 51.027294 51.184709
51.334739 51.477027 51.611635 51.738252 51.856941 51.967434 52.069796 52.163801
52.249510 52.326737 52.395537 52.455765 52.507466 52.550531 52.584995 52.610788
52.627929 52.636383 52.636158 52.627253 52.609662 52.583419 52.548503 52.504985
52.452831 52.392149 52.322894 52.245210 52.159045 52.064582 51.961761 51.850809
51.731661 51.604586 51.469520 51.326777 51.176293 51.018428 50.853125 50.680788
50.501365 50.315311 50.122579 49.923668 49.718543 49.507745 49.291246 49.069628
48.842871 48.611593 48.375779 48.136079 47.892482 47.645660 47.395605 47.143007
46.887853 46.630848 46.371969 46.111927 45.850687 45.588957 45.326688 45.064579
44.802562 44.541321 44.280766 44.021558 43.763587 43.507483 43.253111 43.001072
42.751202 42.504066 42.259475 42.017952 41.779286 41.543954 41.311721 41.083019
40.857592 40.635824 40.417437 40.202770 39.991527 39.783996 39.579869 39.379384
39.182221 38.988571 38.798106 38.610969 38.426827 38.245777 38.067485 37.892001
37.718996 37.548475 37.380117 37.213884 37.049463 36.886780 36.725533 36.565611
36.406730 36.248741 36.091383 35.934475 35.777778
36.155556 36.338012 36.520696 36.703864 36.887712 37.072523 37.258456 37.445815
37.634720 37.825496 38.018220 38.213231 38.410561 38.610561 38.813216 39.018882
39.227497 39.439419 39.654534 39.873200 40.095251 40.321037 40.550341 40.783503
41.020252 41.260914 41.505164 41.753312 42.004978 42.260452 42.519301 42.781792
43.047440 43.316487 43.588399 43.863389 44.140877 44.421048 44.703277 44.987723
45.273719 45.561398 45.850057 46.139803 46.429905 46.720443 47.010665 47.300631
47.589572 47.877529 48.163728 48.448192 48.730150 49.009615 49.285823 49.558782
49.827744 50.092716 50.352975 50.608528 50.858685 51.103457 51.342192 51.574910
51.800999 52.020490 52.232817 52.438022 52.635587 52.825563 53.007485 53.181412
53.346929 53.504102 53.652568 53.792396 53.923271 54.045266 54.158113 54.261882
54.356350 54.441583 54.517403 54.583864 54.640831 54.688349 54.726321 54.754778
54.773663 54.782992 54.782746 54.772924 54.753546 54.724596 54.686130 54.638117
54.580654 54.513695 54.437378 54.351646 54.256677 54.152407 54.039058 53.916560
53.785183 53.644852 53.495886 53.338214 53.172200 52.997780 52.815370 52.624910
52.426870 52.221198 52.008414 51.788478 51.561959 51.328826 51.089695 50.844546
50.594038 50.338158 50.077604 49.812366 49.543176 49.270027 48.993673 48.714108
48.432102 48.147642 47.861510 47.573682 47.284939 46.995244 46.705373 46.415267
46.125690 45.836561 45.548620 45.261763 44.976703 44.693309 44.412257 44.133390
43.857345 43.583936 43.313758 43.046595 42.782995 42.522716 42.266256 42.013346
41.764434 41.519227 41.278121 41.040802 40.807610 40.578214 40.352903 40.131329
39.913727 39.699740 39.489549 39.282789 39.079591 38.879586 38.682853 38.489026
38.298134 38.109817 37.924055 37.740499 37.559082 37.379469 37.201551 37.025008
36.849693 36.675305 36.501661 36.328484 36.155556
36.533333 36.733077 36.933087 37.133597 37.334903 37.537200 37.740812 37.945893
38.152787 38.361606 38.572712 38.786169 39.002353 39.221278 39.443329 39.668469
39.897088 40.129092 40.364873 40.604282 40.847705 41.094936 41.346352 41.601690
41.861313 42.124899 42.392793 42.664615 42.940690 43.220578 43.504580 43.792198
44.083706 44.378552 44.676980 44.978382 45.282974 45.590098 45.899936 46.211785
46.525797 46.841226 47.158194 47.475919 47.794496 48.113114 48.431841 48.749846
49.067174 49.382981 49.697294 50.009267 50.318911 50.625385 50.928692 51.228005
51.523323 51.813842 52.099562 52.379710 52.654290 52.922568 53.184556 53.439564
53.687616 53.928071 54.160964 54.385707 54.602349 54.810355 55.009787 55.200166
55.381561 55.553552 55.716215 55.869183 56.012535 56.145959 56.269533 56.382997
56.486423 56.579599 56.662593 56.735236 56.797584 56.849515 56.891070 56.922168
56.942835 56.953031 56.952764 56.942034 56.920833 56.889200 56.847109 56.794641
56.731755 56.658573 56.575039 56.481321 56.377351 56.263344 56.139225 56.005255
55.861357 55.707845 55.544638 55.372105 55.190170 54.999256 54.799293 54.590763
54.373604 54.148353 53.914963 53.674025 53.425504 53.170046 52.907626 52.638941
52.363977 52.083476 51.797432 51.506627 51.211059 50.911542 50.608075 50.301494
49.991797 49.679834 49.365592 49.049928 48.732816 48.415111 48.096766 47.778624
47.460619 47.143570 46.827386 46.512859 46.199869 45.889173 45.580619 45.274925
44.971907 44.672238 44.375701 44.082920 43.793647 43.508452 43.227058 42.949979
42.676911 42.408311 42.143848 41.883924 41.628185 41.376972 41.129916 40.887297
40.648734 40.414448 40.184046 39.957694 39.734994 39.516053 39.300472 39.088307
38.879159 38.673032 38.469535 38.268622 38.069914 37.873316 37.678466 37.485225
37.293249 37.102358 36.912234 36.722655 36.533333
36.911111 37.128325 37.345813 37.563881 37.782765 38.002802 38.224185 38.447278
38.672227 38.899418 39.128948 39.361220 39.596279 39.834539 40.075990 40.321054
40.569665 40.822244 41.078667 41.339354 41.604117 41.873370 42.146862 42.424994
42.707452 42.994621 43.286122 43.582319 43.882769 44.187810 44.496937 44.810459
45.127809 45.449266 45.774202 46.102862 46.434562 46.769513 47.106976 47.447128
47.789183 48.133283 48.478599 48.825239 49.172340 49.519981 49.867269 50.214257
50.560034 50.904628 51.247121 51.587524 51.924917 52.259299 52.589763 52.916300
53.238022 53.554920 53.866138 54.171668 54.470693 54.763215 55.048461 55.326445
55.596446 55.858493 56.111921 56.356773 56.592444 56.818991 57.035871 57.243153
57.440356 57.627558 57.804339 57.970785 58.126533 58.271671 58.405894 58.529286
58.641597 58.742904 58.833008 58.911975 58.979654 59.036098 59.081201 59.115000
59.137430 59.148513 59.148225 59.136568 59.113562 59.079188 59.033509 58.976486
58.908229 58.828680 58.737995 58.636104 58.523209 58.399231 58.264421 58.118696
57.962360 57.795327 57.617959 57.430172 57.232388 57.024528 56.807076 56.579963
56.343735 56.098335 55.844372 55.581802 55.311296 55.032824 54.747114 54.454151
54.154713 53.848800 53.537235 53.220026 52.898037 52.571278 52.240645 51.906146
51.568699 51.228305 50.885893 50.541453 50.195915 49.849250 49.502381 49.155256
48.808778 48.462871 48.118410 47.775287 47.434345 47.095441 46.759377 46.425975
46.095990 45.769208 45.446331 45.127112 44.812194 44.501298 44.195009 43.893013
43.595834 43.303131 43.015364 42.732165 42.453931 42.180273 41.911524 41.647275
41.387797 41.132669 40.882096 40.635650 40.393475 40.155138 39.920725 39.689801
39.462395 39.238080 39.016826 38.798218 38.582174 38.368292 38.156441 37.946238
37.737506 37.529885 37.323155 37.116984 36.911111
37.288889 37.523751 37.758928 37.994697 38.231409 38.469297 38.708742 38.949929
39.193264 39.438882 39.687210 39.938328 40.192678 40.450284 40.711596 40.976577
41.245685 41.518819 41.796434 42.078367 42.365067 42.656302 42.952511 43.253394
43.559375 43.870084 44.185923 44.506454 44.832053 45.162214 45.497283 45.836685
46.180733 46.528788 46.881126 47.237042 47.596779 47.959569 48.325616 48.694099
49.065182 49.437993 49.812660 50.188268 50.564910 50.941637 51.318509 51.694551
52.069796 52.443254 52.814935 53.183843 53.549974 53.912337 54.270916 54.624741
54.973789 55.317118 55.654711 55.985660 56.309955 56.626739 56.936012 57.236970
57.529629 57.813246 58.087853 58.352771 58.608051 58.853080 59.087923 59.312034
59.525495 59.727825 59.919114 60.098949 60.267423 60.424185 60.569331 60.702566
60.823983 60.933344 61.030731 61.115959 61.189095 61.250005 61.298739 61.335208
61.359444 61.371403 61.371096 61.358523 61.333671 61.296586 61.247236 61.185708
61.111952 61.026104 60.928095 60.818110 60.696067 60.562204 60.416431 60.259040
60.089936 59.909473 59.717555 59.514600 59.300516 59.075785 58.840328 58.594694
58.338816 58.073311 57.798128 57.513952 57.220750 56.919271 56.609499 56.292243
55.967503 55.636145 55.298179 54.954518 54.605182 54.251122 53.892359 53.529874
53.163685 52.794789 52.423196 52.049908 51.674920 51.299230 50.922809 50.546642
50.170671 49.795857 49.422111 49.050358 48.680474 48.313344 47.948804 47.587691
47.229801 46.875917 46.525797 46.180164 45.838737 45.502177 45.170167 44.843300
44.521227 44.204474 43.892661 43.586245 43.284821 42.988775 42.697681 42.411857
42.130858 41.854936 41.583631 41.317130 41.054966 40.797259 40.543541 40.293869
40.047778 39.805264 39.565870 39.329534 39.095812 38.864588 38.635435 38.408185
38.182436 37.957969 37.734410 37.511498 37.288889
37.666667 37.919381 38.172416 38.426131 38.680804 38.936829 39.194435 39.454045
39.715835 39.980255 40.247423 40.517807 40.791468 41.068885 41.350056 41.635469
41.925056 42.219306 42.518083 42.821872 43.130468 43.444345 43.763225 44.087568
44.417023 44.752029 45.092160 45.437830 45.788538 46.144670 46.505648 46.871826
47.242552 47.618142 47.997876 48.382027 48.769808 49.161451 49.556107 49.953964
50.354115 50.756706 51.160780 51.566444 51.972697 52.379607 52.786143 53.192339
53.597140 54.000553 54.401512 54.800003 55.194959 55.586353 55.973129 56.355255
56.731700 57.102429 57.466450 57.823734 58.173335 58.515238 58.848550 59.173273
59.488580 59.794490 60.090243 60.375881 60.650716 60.914807 61.167540 61.408994
61.638625 61.856527 62.062228 62.255830 62.436930 62.605634 62.761603 62.904943
63.035375 63.152996 63.257587 63.349231 63.427761 63.493245 63.545566 63.584771
63.610791 63.623649 63.623322 63.609811 63.583138 63.543278 63.490302 63.424160
63.344972 63.252667 63.147415 63.029129 62.898032 62.754025 62.597387 62.428014
62.246244 62.051972 61.845603 61.627034 61.396739 61.154625 60.901239 60.636500
60.361029 60.074764 59.778398 59.471891 59.156007 58.830725 58.496881 58.154474
57.804401 57.446678 57.082261 56.711176 56.334427 55.952048 55.565079 55.173554
54.778539 54.380061 53.979200 53.575969 53.171447 52.765628 52.359580 51.953269
51.547741 51.142929 50.739848 50.338391 49.939532 49.543125 49.150092 48.760247
48.374454 47.992483 47.615138 47.242144 46.874240 46.511110 46.153423 45.800825
45.453912 45.112295 44.776497 44.446097 44.121545 43.802393 43.489017 43.180948
42.878486 42.581148 42.289161 42.002031 41.719916 41.442313 41.169314 40.900416
40.635643 40.374499 40.116945 39.862496 39.611052 39.362145 39.115617 38.871023
38.628151 38.386583 38.146057 37.906187 37.666667
38.044444 38.315206 38.586334 38.858151 39.131064 39.405346 39.681436 39.959556
40.240172 40.523449 40.809876 41.099555 41.392994 41.690228 41.991776 42.297607
42.608241 42.923578 43.244137 43.569741 43.900905 44.237375 44.579651 44.927402
45.281108 45.640359 46.005610 46.376372 46.753069 47.135132 47.522950 47.915874
48.314255 48.717367 49.125517 49.537905 49.954793 50.375311 50.799673 51.226944
51.657291 52.089721 52.524356 52.960149 53.397182 53.834366 54.271742 54.708192
55.143723 55.577198 56.008598 56.436777 56.861698 57.282224 57.698305 58.108823
58.513726 58.911931 59.303390 59.687064 60.062919 60.429971 60.788202 61.136697
61.475458 61.803639 62.121270 62.427581 62.722624 63.005709 63.276910 63.535616
63.781921 64.015293 64.235837 64.443096 64.637186 64.817720 64.984814 65.138150