<?xml version="1.0"?>
<VTKFile type="ImageData" version="0.1" byte_order="LittleEndian">
  <ImageData WholeExtent="0 180 0 180 0 0" Origin="0.0 0.0 0.0" Spacing="0.05 0.05 1">
    <Piece Extent="0 180 0 180 0 0">
      <PointData Scalars="Temperature">
        <DataArray type="Float32" Name="Temperature" format="ascii">
32.000000 32.000000 32.000000 32.000000 32.000000 32.000000 32.000000 32.000000 32.000000 32.000000 32.000000 32.000000 32.000000 32.000000 32.000000 32.000000 32.000000 32.000000 32.000000 32.000000 32.000000 32.000000 32.000000 32.000000 32.000000 32.000000 32.000000 32.000000 32.000000 32.000000 32.000000 32.000000 32.000000 32.000000 32.000000 32.000000 32.000000 32.000000 32.000000 32.000000 32.000000 32.000000 32.000000 32.000000 32.000000 32.000000 32.000000 32.000000 32.000000 32.000000 32.000000 32.000000 32.000000 32.000000 32.000000 32.000000 32.000000 32.000000 32.000000 32.000000 32.000000 32.000000 32.000000 32.000000 32.000000 32.000000 32.000000 32.000000 32.000000 32.000000 32.000000 32.000000 32.000000 32.000000 32.000000 32.000000 32.000000 32.000000 32.000000 32.000000 32.000000 32.000000 32.000000 32.000000 32.000000 32.000000 32.000000 32.000000 32.000000 32.000000 32.000000 32.000000 32.000000 32.000000 32.000000 32.000000 32.000000 32.000000 32.000000 32.000000 32.000000 32.000000 32.000000 32.000000 32.000000 32.000000 32.000000 32.000000 32.000000 32.000000 32.000000 32.000000 32.000000 32.000000 32.000000 32.000000 32.000000 32.000000 32.000000 32.000000 32.000000 32.000000 32.000000 32.000000 32.000000 32.000000 32.000000 32.000000 32.000000 32.000000 32.000000 32.000000 32.000000 32.000000 32.000000 32.000000 32.000000 32.000000 32.000000 32.000000 32.000000 32.000000 32.000000 32.000000 32.000000 32.000000 32.000000 32.000000 32.000000 32.000000 32.000000 32.000000 32.000000 32.000000 32.000000 32.000000 32.000000 32.000000 32.000000 32.000000 32.000000 32.000000 32.000000 32.000000 32.000000 32.000000 32.000000 32.000000 32.000000 32.000000 32.000000 32.000000 32.000000 32.000000 32.000000 32.000000 32.000000 32.000000 32.000000 32.000000 32.000000
32.377778 32.403193 32.428619 32.454066 32.479544 32.505063 32.530632 32.556262 32.581961 32.607741 32.633605 32.659567 32.685629 32.711803 32.738090 32.764502 32.791038 32.817708 32.844508 32.871449 32.898524 32.925743 32.953096 32.980592 33.008219 33.035983 33.063870 33.091886 33.120012 33.148252 33.176586 33.205016 33.233518 33.262093 33.290714 33.319380 33.348063 33.376758 33.405434 33.434088 33.462684 33.491216 33.519648 33.547973 33.576154 33.604180 33.632013 33.659642 33.687029 33.714162 33.741001 33.767533 33.793721 33.819549 33.844981 33.870003 33.894577 33.918691 33.942309 33.965418 33.987985 34.009997 34.031422 34.052250 34.072451 34.092016 34.110917 34.129146 34.146678 34.163506 34.179609 34.194981 34.209602 34.223467 34.236561 34.248879 34.260408 34.271144 34.281076 34.290203 34.298513 34.306007 34.312677 34.318521 34.323535 34.327717 34.331065 34.333577 34.335251 34.336087 34.336085 34.335245 34.333567 34.331052 34.327702 34.323517 34.318502 34.312657 34.305988 34.298496 34.290188 34.281067 34.271141 34.260412 34.248894 34.236588 34.223509 34.209661 34.195060 34.179711 34.163634 34.146835 34.129336 34.111144 34.092284 34.072764 34.052612 34.031838 34.010473 33.988525 33.966029 33.942995 33.919459 33.895433 33.870954 33.846034 33.820711 33.794999 33.768936 33.742536 33.715838 33.688856 33.661628 33.634166 33.606511 33.578674 33.550692 33.522577 33.494365 33.466065 33.437713 33.409315 33.380907 33.352493 33.324104 33.295745 33.267445 33.239205 33.211051 33.182985 33.155029 33.127182 33.099464 33.071872 33.044424 33.017114 32.989958 32.962948 32.936098 32.909398 32.882858 32.856469 32.830237 32.804152 32.778218 32.752423 32.726770 32.701245 32.675849 32.650569 32.625402 32.600335 32.575364 32.550476 32.525664 32.500915 32.476222 32.451572 32.426956 32.402361 32.377778
32.755556 32.806394 32.857254 32.908155 32.959119 33.010163 33.061311 33.112578 33.163987 33.215550 33.267293 33.319220 33.371360 33.423712 33.476304 33.529132 33.582221 33.635565 33.689185 33.743072 33.797244 33.851687 33.906418 33.961415 34.016695 34.072230 34.128032 34.184070 34.240352 34.296840 34.353540 34.410408 34.467447 34.524606 34.581885 34.639228 34.696631 34.754032 34.811425 34.868744 34.925976 34.983054 35.039961 35.096625 35.153027 35.209094 35.264803 35.320077 35.374893 35.429173 35.482893 35.535973 35.588388 35.640060 35.690963 35.741021 35.790208 35.838449 35.885721 35.931951 35.977118 36.021153 36.064034 36.105700 36.146131 36.185269 36.223096 36.259561 36.294648 36.328311 36.360537 36.391284 36.420544 36.448278 36.474481 36.499119 36.522189 36.543663 36.563537 36.581791 36.598420 36.613408 36.626754 36.638443 36.648475 36.656840 36.663537 36.668561 36.671911 36.673584 36.673580 36.671899 36.668542 36.663512 36.656809 36.648440 36.638405 36.626715 36.613370 36.598386 36.581762 36.563518 36.543656 36.522199 36.499149 36.474535 36.448362 36.420663 36.391443 36.360742 36.328567 36.294964 36.259942 36.223551 36.185805 36.146758 36.106426 36.064868 36.022105 35.978199 35.933173 35.887094 35.839986 35.791921 35.742923 35.693069 35.642384 35.590945 35.538779 35.485964 35.432526 35.378546 35.324048 35.269110 35.213758 35.158068 35.102063 35.045818 34.989352 34.932739 34.875994 34.819188 34.762331 34.705492 34.648677 34.591948 34.535311 34.478822 34.422481 34.366340 34.310395 34.254693 34.199227 34.144037 34.089112 34.034487 33.980148 33.926124 33.872399 33.818995 33.765893 33.713110 33.660626 33.608452 33.556565 33.504972 33.453648 33.402596 33.351789 33.301225 33.250877 33.200740 33.150786 33.101005 33.051370 33.001868 32.952472 32.903166 32.853925 32.804730 32.755556
33.133333 33.209611 33.285918 33.362290 33.438752 33.515341 33.592080 33.669005 33.746135 33.823508 33.901136 33.979059 34.057283 34.135846 34.214749 34.294029 34.373680 34.453737 34.534186 34.615060 34.696339 34.778052 34.860170 34.942720 35.025664 35.109024 35.192754 35.276873 35.361325 35.446124 35.531206 35.616579 35.702172 35.787986 35.873942 35.960036 36.046181 36.132367 36.218499 36.304563 36.390458 36.476163 36.561572 36.646658 36.731312 36.815504 36.899118 36.982121 37.064397 37.145909 37.226540 37.306250 37.384923 37.462519 37.538922 37.614094 37.687920 37.760363 37.831314 37.900736 37.968525 38.034648 38.099007 38.161571 38.222249 38.281014 38.337783 38.392533 38.445187 38.495728 38.544086 38.590248 38.634152 38.675788 38.715104 38.752091 38.786704 38.818939 38.848758 38.876157 38.901106 38.923603 38.943625 38.961169 38.976219 38.988774 38.998821 39.006361 39.011387 39.013898 39.013892 39.011369 39.006333 38.998784 38.988728 38.976166 38.961113 38.943566 38.923547 38.901055 38.876115 38.848730 38.818930 38.786720 38.752137 38.715187 38.675916 38.634331 38.590487 38.544394 38.496114 38.445662 38.393106 38.338467 38.281820 38.223190 38.162661 38.100259 38.036079 37.970149 37.902570 37.833375 37.762670 37.690491 37.616949 37.542083 37.466007 37.388760 37.310461 37.231148 37.150941 37.069878 36.988079 36.905581 36.822502 36.738875 36.654818 36.570360 36.485613 36.400605 36.315441 36.230145 36.144817 36.059474 35.974212 35.889040 35.804047 35.719237 35.634691 35.550408 35.466460 35.382839 35.299612 35.216763 35.134350 35.052354 34.970823 34.889734 34.809125 34.728969 34.649297 34.570078 34.491334 34.413032 34.335186 34.257758 34.180758 34.104144 34.027920 33.952042 33.876507 33.801273 33.726328 33.651631 33.577165 33.502889 33.428781 33.354801 33.280924 33.207112 33.133333
33.511111 33.612849 33.714629 33.816490 33.918480 34.020630 34.122991 34.225589 34.328476 34.431671 34.535227 34.639156 34.743511 34.848296 34.953561 35.059304 35.165573 35.272354 35.379693 35.487568 35.596021 35.705018 35.814597 35.924713 36.035400 36.146602 36.258346 36.370565 36.483279 36.596411 36.709973 36.823877 36.938127 37.052624 37.167366 37.282242 37.397242 37.512246 37.627237 37.742084 37.856762 37.971135 38.085169 38.198721 38.311752 38.424113 38.535760 38.646538 38.756400 38.865190 38.972856 39.079243 39.184296 39.287861 39.389883 39.490211 39.588791 39.685475 39.780214 39.872863 39.963377 40.051621 40.137551 40.221041 40.302053 40.380470 40.456258 40.529313 40.599604 40.667038 40.731590 40.793177 40.851780 40.907326 40.959801 41.009141 41.055337 41.098335 41.138129 41.174675 41.207969 41.237976 41.264692 41.288092 41.308174 41.324918 41.338325 41.348381 41.355086 41.358435 41.358427 41.355063 41.348344 41.338275 41.324857 41.308105 41.288017 41.264616 41.237902 41.207903 41.174621 41.138094 41.098325 41.055360 41.009204 40.959914 40.907498 40.852022 40.793498 40.732004 40.667555 40.600240 40.530080 40.457173 40.381547 40.303311 40.222497 40.139224 40.053531 39.965545 39.875311 39.782965 39.688553 39.592222 39.494021 39.394101 39.292514 39.189416 39.084860 38.979004 38.871902 38.763712 38.654485 38.544381 38.433447 38.321840 38.209604 38.096891 37.983738 37.870295 37.756591 37.642768 37.528851 37.414971 37.301147 37.187500 37.074042 36.960884 36.848029 36.735580 36.623530 36.511971 36.400889 36.290365 36.180377 36.070995 35.962191 35.854022 35.746455 35.639536 35.533225 35.427559 35.322494 35.218053 35.114190 35.010920 34.908190 34.806008 34.704318 34.603119 34.502354 34.402013 34.302040 34.202415 34.103084 34.004020 33.905171 33.806502 33.707963 33.609515 33.511111
33.888889 34.016117 34.143397 34.270783 34.398323 34.526075 34.654078 34.782395 34.911056 35.040125 35.169624 35.299618 35.430118 35.561189 35.692832 35.825109 35.958009 36.091593 36.225838 36.360800 36.496443 36.632817 36.769875 36.907661 37.046112 37.185267 37.325048 37.465485 37.606489 37.748079 37.890152 38.032719 38.175663 38.318984 38.462551 38.606357 38.750258 38.894234 39.038131 39.181920 39.325435 39.468638 39.611355 39.753539 39.895006 40.035705 40.175444 40.314166 40.451677 40.587912 40.722677 40.855905 40.987399 41.117093 41.244793 41.370433 41.493822 41.614896 41.733473 41.849491 41.962776 42.073271 42.180813 42.285350 42.386731 42.484909 42.579746 42.671204 42.759156 42.843570 42.924334 43.001423 43.074738 43.144259 43.209901 43.271650 43.329433 43.383242 43.433014 43.478744 43.520383 43.557928 43.591340 43.620617 43.645730 43.666679 43.683443 43.696024 43.704409 43.708599 43.708589 43.704381 43.695979 43.683382 43.666604 43.645644 43.620525 43.591246 43.557838 43.520302 43.478679 43.432972 43.383232 43.329465 43.271733 43.210046 43.144478 43.075043 43.001829 42.924854 42.844221 42.759954 42.672168 42.580894 42.486261 42.388308 42.287175 42.182909 42.075664 41.965491 41.852556 41.736917 41.618750 41.498116 41.375201 41.250071 41.122916 40.993804 40.862932 40.730367 40.596308 40.460821 40.324107 40.186226 40.047379 39.907621 39.767149 39.626012 39.484400 39.342356 39.200061 39.057551 38.914997 38.772425 38.629995 38.487726 38.345763 38.204116 38.062918 37.922168 37.781986 37.642361 37.503399 37.365080 37.227495 37.090615 36.954519 36.819168 36.684626 36.550849 36.417886 36.285685 36.154285 36.023627 35.893735 35.764549 35.636079 35.508261 35.381095 35.254514 35.128508 35.003006 34.877991 34.753392 34.629180 34.505287 34.381677 34.258282 34.135059 34.011945 33.888889
34.266667 34.419421 34.572241 34.725183 34.878319 35.031700 35.185399 35.339457 35.493953 35.648917 35.804427 35.960504 36.117226 36.274601 36.432705 36.591533 36.751159 36.911564 37.072817 37.234884 37.397830 37.561603 37.726262 37.891741 38.058089 38.225223 38.393184 38.561872 38.731316 38.901402 39.072148 39.243421 39.415229 39.587421 39.759995 39.932784 40.105773 40.278780 40.451778 40.624573 40.797126 40.969230 41.140834 41.311723 41.481836 41.650948 41.818992 41.985736 42.151105 42.314865 42.476936 42.637083 42.795223 42.951122 43.104699 43.255722 43.404111 43.549642 43.692238 43.831686 43.967912 44.100713 44.230024 44.355656 44.477549 44.595529 44.709545 44.819438 44.925166 45.026586 45.123665 45.216274 45.304389 45.387898 45.466783 45.540949 45.610384 45.675006 45.734808 45.789724 45.839749 45.884832 45.924970 45.960123 45.990290 46.015442 46.035580 46.050684 46.060756 46.065786 46.065775 46.060723 46.050630 46.035507 46.015354 45.990190 45.960015 45.924860 45.884726 45.839655 45.789648 45.734761 45.674998 45.610426 45.541053 45.466962 45.388165 45.304760 45.216766 45.124295 45.027374 44.926131 44.820601 44.710929 44.597157 44.479448 44.357852 44.232547 44.103591 43.971177 43.835371 43.696379 43.554273 43.409271 43.261451 43.111040 42.958117 42.802917 42.645523 42.486173 42.324947 42.162088 41.997672 41.831940 41.664965 41.496984 41.328063 41.158432 40.988151 40.817441 40.646351 40.475092 40.303704 40.132383 39.961159 39.790215 39.619566 39.449384 39.279670 39.110579 38.942102 38.774376 38.607381 38.441236 38.275911 38.111508 37.947986 37.785431 37.623791 37.463136 37.303407 37.144656 36.986816 36.829925 36.673911 36.518794 36.364498 36.211031 36.058311 35.906333 35.755015 35.604338 35.454218 35.304625 35.155478 35.006735 34.858316 34.710170 34.562222 34.414411 34.266667
34.644444 34.822770 35.001168 35.179719 35.358486 35.537554 35.716977 35.896845 36.077202 36.258136 36.439681 36.621927 36.804891 36.988665 37.173251 37.358737 37.545109 37.732452 37.920735 38.110036 38.300308 38.491620 38.683907 38.877231 39.071506 39.266784 39.462960 39.660074 39.858001 40.056770 40.256236 40.456414 40.657140 40.858415 41.060055 41.262048 41.464192 41.666461 41.868635 42.070675 42.272345 42.473594 42.674172 42.874016 43.072865 43.270644 43.467085 43.662104 43.855427 44.046963 44.236436 44.423750 44.608629 44.790976 44.970518 45.147159 45.320632 45.490844 45.657537 45.820625 45.979862 46.135166 46.286309 46.433216 46.575674 46.713620 46.846858 46.975335 47.098874 47.217430 47.330848 47.439092 47.542025 47.639621 47.731760 47.818426 47.899517 47.975021 48.044855 48.109012 48.167424 48.220089 48.266951 48.308012 48.343231 48.372609 48.396118 48.413759 48.425517 48.431392 48.431379 48.425479 48.413698 48.396035 48.372508 48.343116 48.307889 48.266826 48.219969 48.167318 48.108930 48.044806 47.975018 47.899572 47.818553 47.731975 47.639939 47.542465 47.439674 47.331591 47.218357 47.100007 46.976700 46.848481 46.715529 46.577898 46.435787 46.289260 46.138533 45.983680 45.824934 45.662377 45.496257 45.326662 45.153854 44.977925 44.799147 44.617616 44.433608 44.247222 44.058737 43.868250 43.676041 43.482201 43.287008 43.090547 42.893091 42.694714 42.495681 42.296057 42.096095 41.895846 41.695551 41.495250 41.295165 41.095324 40.895932 40.697001 40.498721 40.301087 40.104270 39.908253 39.713186 39.519038 39.325940 39.133848 38.942873 38.752959 38.564198 38.376524 38.190007 38.004575 37.820278 37.637036 37.454881 37.273726 37.093588 36.914373 36.736083 36.558621 36.381973 36.206041 36.030797 35.856142 35.682035 35.508381 35.335125 35.162176 34.989469 34.816916 34.644444
35.022222 35.226167 35.430200 35.634400 35.838861 36.043652 36.248874 36.454583 36.660882 36.867816 37.075488 37.283928 37.493240 37.703437 37.914621 38.126787 38.340035 38.554339 38.769794 38.986356 39.204109 39.422989 39.643074 39.864276 40.086661 40.310121 40.534709 40.760294 40.986915 41.214419 41.442831 41.671973 41.901856 42.132279 42.363237 42.594509 42.826072 43.057685 43.289309 43.520684 43.751755 43.982246 44.212088 44.440989 44.668868 44.895422 45.120557 45.343962 45.565535 45.784960 46.002128 46.216720 46.428626 46.637528 46.843315 47.045676 47.244501 47.439489 47.630535 47.817350 47.999836 48.177721 48.350915 48.519164 48.682390 48.840358 48.993000 49.140105 49.281617 49.417344 49.547244 49.671147 49.789021 49.900719 50.006218 50.105393 50.198228 50.284618 50.364556 50.437954 50.504808 50.565052 50.618683 50.665648 50.705950 50.739551 50.766451 50.786627 50.800081 50.806800 50.806785 50.800038 50.786558 50.766358 50.739438 50.705823 50.665511 50.618544 50.564920 50.504693 50.437865 50.364506 50.284621 50.198298 50.105546 50.006472 49.901092 49.789534 49.671821 49.548103 49.418413 49.282923 49.141676 48.994866 48.842551 48.684944 48.522115 48.354301 48.181581 48.004213 47.822287 47.636080 47.445689 47.251407 47.053341 46.851795 46.646880 46.438911 46.228000 46.014469 45.798430 45.580205 45.359904 45.137847 44.914138 44.689092 44.462803 44.235580 44.007503 43.778870 43.549750 43.320424 43.090947 42.861584 42.632374 42.403563 42.175173 41.947431 41.720341 41.494110 41.268725 41.044369 40.821016 40.598824 40.377752 40.157937 39.939322 39.722021 39.505966 39.291247 39.077786 38.865651 38.654752 38.445138 38.236712 38.029500 37.823400 37.618421 37.414453 37.211487 37.009414 36.808206 36.607751 36.408009 36.208868 36.010273 35.812116 35.614327 35.416805 35.219469 35.022222
35.400000 35.629623 35.859340 36.089256 36.319455 36.550047 36.781104 37.012741 37.245017 37.478048 37.711877 37.946623 38.182309 38.419054 38.656863 38.895849 39.135998 39.377418 39.620072 39.864062 40.109328 40.355961 40.603878 40.853158 41.103694 41.355553 41.608600 41.862888 42.118258 42.374746 42.632166 42.890536 43.149648 43.409500 43.669857 43.930702 44.191774 44.453038 44.714212 44.975240 45.235820 45.495881 45.755102 46.013396 46.270427 46.526095 46.780050 47.032182 47.282134 47.529786 47.774777 48.016982 48.256041 48.491824 48.723978 48.952373 49.176665 49.396729 49.612232 49.823057 50.028887 50.229615 50.424944 50.614778 50.798841 50.977050 51.149154 51.315084 51.474613 51.627684 51.774099 51.913812 52.046649 52.172578 52.291450 52.403241 52.507827 52.605193 52.695234 52.777945 52.853240 52.921118 52.981513 53.034426 53.079806 53.117658 53.147946 53.170674 53.185821 53.193390 53.193374 53.185774 53.170598 53.147844 53.117534 53.079666 53.034277 52.981363 52.920976 52.853117 52.777853 52.695187 52.605205 52.507915 52.403424 52.291746 52.173009 52.047237 51.914583 51.775078 51.628900 51.476095 51.316865 51.151268 50.979532 50.801729 50.618113 50.428769 50.233975 50.033828 49.828628 49.618486 49.403721 49.184451 48.961014 48.733534 48.502363 48.267628 48.029691 47.788679 47.544958 47.298655 47.050135 46.799519 46.547169 46.293197 46.037957 45.781549 45.524315 45.266343 45.007959 44.749235 44.490479 44.231745 43.973322 43.715244 43.457779 43.200942 42.944976 42.689878 42.435866 42.182920 41.931230 41.680758 41.431670 41.183911 40.937621 40.692729 40.449350 40.207400 39.966967 39.727957 39.490434 39.254292 39.019574 38.786164 38.554082 38.323209 38.093542 37.864959 37.637437 37.410851 37.185161 36.960241 36.736036 36.512421 36.289326 36.066631 35.844251 35.622072 35.400000
35.777778 36.033138 36.288609 36.544292 36.800308 37.056745 37.313729 37.571333 37.829688 38.088851 38.348954 38.610036 38.872228 39.135550 39.400129 39.665964 39.933177 40.201742 40.471775 40.743226 41.016201 41.290622 41.566586 41.843987 42.122906 42.403212 42.684970 42.968018 43.252406 43.537943 43.824658 44.112334 44.400979 44.690346 44.980425 45.270940 45.561860 45.852883 46.143957 46.434757 46.725210 47.014969 47.303943 47.591765 47.878328 48.163251 48.446411 48.727415 49.006130 49.282156 49.555351 49.825314 50.091898 50.354705 50.613586 50.868152 51.118257 51.363523 51.603812 51.838761 52.068243 52.291916 52.509664 52.721169 52.926328 53.124851 53.316650 53.501461 53.679214 53.849673 54.012782 54.168336 54.316291 54.456471 54.588846 54.713265 54.829709 54.938053 55.038287 55.130309 55.214114 55.289622 55.356834 55.415687 55.466185 55.508283 55.541984 55.567259 55.584113 55.592530 55.592513 55.584063 55.567177 55.541874 55.508149 55.466035 55.415528 55.356674 55.289472 55.213986 55.130216 55.038245 54.938078 54.829819 54.713480 54.589188 54.456964 54.316960 54.169207 54.013886 53.851040 53.680878 53.503457 53.319016 53.127627 52.929557 52.724894 52.513934 52.296779 52.073753 51.844972 51.610781 51.371312 51.126929 50.877773 50.624226 50.366435 50.104795 49.839455 49.570820 49.299035 49.024509 48.747384 48.468066 48.186688 47.903651 47.619076 47.333351 47.046584 46.759149 46.471135 46.182897 45.894507 45.606298 45.318320 45.030882 44.744015 44.458001 44.172850 43.888815 43.605885 43.324286 43.043986 42.765182 42.487823 42.212077 41.937875 41.665356 41.394434 41.125222 40.857618 40.591707 40.327376 40.064683 39.803505 39.543875 39.285661 39.028873 38.773373 38.519148 38.266058 38.014067 37.763035 37.512907 37.263544 37.014874 36.766760 36.519114 36.271807 36.024736 35.777778
36.155556 36.436722 36.718007 36.999539 37.281424 37.563798 37.846752 38.130429 38.414902 38.700318 38.986729 39.274283 39.563013 39.853064 40.144445 40.437297 40.731605 41.027503 41.324949 41.624067 41.924788 42.227225 42.531277 42.837044 43.144397 43.453416 43.763943 44.076039 44.389512 44.704406 45.020496 45.337805 45.656074 45.975304 46.295207 46.615758 46.936640 47.257805 47.578908 47.899877 48.220341 48.540208 48.859083 49.176853 49.493106 49.807709 50.120236 50.430540 50.738184 51.043011 51.344576 51.642717 51.936990 52.227230 52.512997 52.794127 53.070194 53.341038 53.606249 53.865677 54.118933 54.365880 54.606153 54.839630 55.065976 55.285084 55.496650 55.700586 55.896619 56.084678 56.264523 56.436100 56.599201 56.753787 56.899681 57.036857 57.165166 57.284595 57.395020 57.496438 57.588748 57.671952 57.745974 57.810817 57.866424 57.912801 57.949909 57.977752 57.996309 58.005581 58.005563 57.996255 57.977665 57.949792 57.912660 57.866265 57.810648 57.745806 57.671797 57.588617 57.496347 57.394986 57.284635 57.165301 57.037109 56.900073 56.754346 56.599954 56.437078 56.265756 56.086202 55.898469 55.702803 55.499274 55.288160 55.069549 54.843751 54.610872 54.371253 54.125017 53.872533 53.613940 53.349631 53.079758 52.804736 52.524725 52.240159 51.951202 51.658299 51.361616 51.061604 50.758426 50.452534 50.144082 49.833518 49.520987 49.206923 48.891459 48.575014 48.257701 47.939922 47.621770 47.303622 46.985551 46.667907 46.350740 46.034374 45.718831 45.404408 45.091103 44.779181 44.468617 44.159645 43.852217 43.546535 43.242531 42.940373 42.639976 42.341476 42.044770 41.749964 41.456941 41.165776 40.876340 40.588679 40.302654 40.018286 39.735426 39.454069 39.174062 38.895377 38.617858 38.341454 38.066009 37.791453 37.517632 37.244457 36.971779 36.699493 36.427459 36.155556
36.533333 36.840376 37.147555 37.454994 37.762841 38.071203 38.380236 38.690029 39.000743 39.312449 39.625307 39.939368 40.254792 40.571604 40.889962 41.209864 41.531461 41.854725 42.179798 42.506621 42.835324 43.165817 43.498217 43.832400 44.168465 44.506257 44.845854 45.187066 45.529950 45.874282 46.220095 46.567129 46.915393 47.264593 47.614711 47.965419 48.316675 48.668117 49.019677 49.370964 49.721884 50.072019 50.421252 50.769141 51.115549 51.460013 51.802377 52.142167 52.479211 52.813025 53.143428 53.469933 53.792354 54.110206 54.423303 54.731170 55.033625 55.330207 55.620744 55.904796 56.182202 56.452550 56.715695 56.971254 57.219101 57.458885 57.690500 57.913631 58.128192 58.333904 58.530700 58.718337 58.896767 59.065781 59.225347 59.375290 59.515591 59.646104 59.766824 59.877631 59.978527 60.069418 60.150310 60.221133 60.281893 60.332541 60.373084 60.403489 60.423763 60.433888 60.433869 60.423706 60.403397 60.372961 60.332393 60.281727 60.220957 60.150137 60.069259 59.978397 59.877545 59.766801 59.646164 59.515755 59.375582 59.225794 59.066410 58.897609 58.719424 58.532068 58.335589 58.130235 57.916074 57.693388 57.462265 57.223025 56.975776 56.720871 56.458439 56.188867 55.912302 55.629163 55.339609 55.044088 54.742772 54.436129 54.124340 53.807889 53.486961 53.162049 52.833338 52.501325 52.166189 51.828423 51.488198 51.145997 50.801975 50.456604 50.110020 49.762674 49.414681 49.066470 48.718132 48.370068 48.022344 47.675330 47.329068 46.983895 46.639825 46.297163 45.955896 45.616294 45.278318 44.942205 44.607891 44.275577 43.945179 43.616860 43.290519 42.966285 42.644036 42.323871 42.005653 41.689447 41.375105 41.062661 40.751959 40.443003 40.135628 39.829814 39.525392 39.222316 38.920414 38.619618 38.319758 38.020745 37.722413 37.424654 37.127309 36.830252 36.533333
36.911111 37.244109 37.577250 37.910689 38.244555 38.579012 38.914172 39.250205 39.587202 39.925338 40.264681 40.605407 40.947558 41.291310 41.636676 41.983827 42.332747 42.683598 43.036334 43.391104 43.747831 44.106647 44.467442 44.830331 45.195167 45.562046 45.930782 46.301450 46.673826 47.047961 47.423591 47.800740 48.179109 48.558691 48.939150 49.320452 49.702222 50.084399 50.466573 50.848654 51.230201 51.611098 51.990873 52.369386 52.746144 53.120981 53.493387 53.863178 54.229830 54.593146 54.952595 55.307972 55.658745 56.004706 56.345330 56.680411 57.009439 57.332213 57.648245 57.957347 58.259056 58.553201 58.839350 59.117351 59.386809 59.647593 59.899345 60.141959 60.375115 60.598729 60.812523 61.016435 61.210222 61.393845 61.567098 61.729957 61.882252 62.023973 62.154980 62.275274 62.384743 62.483396 62.571145 62.648002 62.713904 62.768860 62.812828 62.845817 62.867802 62.878788 62.878768 62.867743 62.845722 62.812700 62.768706 62.713732 62.647823 62.570969 62.483236 62.384616 62.275197 62.154972 62.024056 61.882449 61.730295 61.567604 61.394550 61.211158 61.017637 60.814030 60.600582 60.377355 60.144633 59.902502 59.651285 59.391090 59.122281 58.844988 58.559613 58.266309 57.965513 57.657398 57.342433 57.020806 56.693015 56.359258 56.020053 55.675608 55.326455 54.972802 54.615189 54.253821 53.889238 53.521638 53.151552 52.779164 52.404994 52.029206 51.652303 51.274426 50.896054 50.517302 50.138622 49.760103 49.382162 49.004861 48.628584 48.253362 47.879542 47.507127 47.136426 46.767414 46.400362 46.035216 45.672211 45.311266 44.952576 44.596041 44.241818 43.889783 43.540058 43.192503 42.847202 42.504001 42.162952 41.823887 41.486826 41.151592 40.818174 40.486391 40.156204 39.827426 39.499993 39.173720 38.848518 38.524204 38.200669 37.877734 37.555272 37.233112 36.911111
37.288889 37.647919 38.007111 38.366615 38.726606 39.087213 39.448621 39.810940 40.174359 40.538966 40.904951 41.272378 41.641437 42.012161 42.384738 42.759170 43.135637 43.514110 43.894757 44.277515 44.662537 45.049723 45.439211 45.830862 46.224793 46.620825 47.019053 47.419256 47.821504 48.225535 48.631389 49.038764 49.447670 49.857763 50.269022 50.681063 51.093832 51.506906 51.920200 52.333256 52.745956 53.157809 53.568669 53.978015 54.385676 54.791107 55.194115 55.594135 55.990957 56.384006 56.773058 57.157536 57.537209 57.911501 58.280183 58.642690 58.998798 59.347963 59.689969 60.024300 60.350758 60.668856 60.978418 61.278995 61.570434 61.852326 62.124544 62.386724 62.638763 62.880341 63.111381 63.331606 63.540962 63.739214 63.926329 64.102110 64.266541 64.419463 64.560872 64.690639 64.808771 64.915168 65.009842 65.092717 65.163806 65.223057 65.270481 65.306044 65.329756 65.341599 65.341579 65.329695 65.305945 65.270349 65.222899 65.163631 65.092534 65.009665 64.915011 64.808651 64.690574 64.560883 64.419573 64.266776 64.102496 63.926898 63.739998 63.541997 63.332929 63.113034 62.882366 62.641208 62.389636 62.127978 61.856336 61.575080 61.284339 60.984526 60.675797 60.358606 60.033131 59.699865 59.359006 59.011080 58.656301 58.295221 57.928067 57.555409 57.177479 56.794860 56.407783 56.016834 55.622239 55.224580 54.824069 54.421278 54.016402 53.609993 53.202224 52.793626 52.384343 51.974876 51.565343 51.156210 50.747564 50.339836 49.933079 49.527686 49.123677 48.721405 48.320859 47.922350 47.525835 47.131586 46.739529 46.349894 45.962584 45.577784 45.195374 44.815500 44.438020 44.063043 43.690408 43.320185 42.952200 42.586488 42.222863 41.861326 41.501682 41.143903 40.787788 40.433278 40.080172 39.728386 39.377717 39.028058 38.679212 38.331048 37.983377 37.636050 37.288889
37.666667 38.051815 38.437132 38.822803 39.208979 39.595855 39.983563 40.372305 40.762189 41.153423 41.546090 41.940396 42.336396 42.734294 43.134113 43.536052 43.940100 44.346445 44.755040 45.166061 45.579423 45.995283 46.413517 46.834262 47.257351 47.682898 48.110693 48.540823 48.973034 49.407382 49.843569 50.281620 50.721192 51.162275 51.604481 52.047768 52.491702 52.936207 53.380809 53.825395 54.269454 54.712839 55.155006 55.595778 56.034579 56.471207 56.905062 57.335920 57.763165 58.186554 58.605464 59.019643 59.428465 59.831673 60.228653 60.619150 61.002565 61.378654 61.746843 62.106903 62.458294 62.800808 63.133941 63.457514 63.771064 64.074440 64.367229 64.649304 64.920303 65.180129 65.428466 65.665247 65.890200 66.103283 66.304270 66.493139 66.669703 66.833958 66.985755 67.125099 67.251875 67.366095 67.467672 67.556622 67.632880 67.696464 67.747329 67.785489 67.810920 67.823628 67.823607 67.810858 67.785389 67.747195 67.696304 67.632703 67.556439 67.467497 67.365944 67.251764 67.125050 66.985788 66.834100 66.669979 66.493580 66.304908 66.104154 65.891340 65.666697 65.430270 65.182334 64.922957 64.652462 64.370944 64.078776 63.776081 63.463279 63.140526 62.808286 62.466743 62.116407 61.757487 61.390530 61.015766 60.633777 60.244809 59.849467 59.448008 59.041055 58.628867 58.212075 57.790935 57.366078 56.937748 56.506569 56.072768 55.636953 55.199327 54.760475 54.320574 53.880179 53.439436 52.998868 52.558584 52.119071 51.680403 51.243024 50.806975 50.372656 49.940072 49.509577 49.081145 48.655083 48.231332 47.810156 47.391464 46.975476 46.562074 46.151432 45.743410 45.338140 44.935459 44.535459 44.137959 43.743013 43.350425 42.960211 42.572166 42.186271 41.802313 41.420243 41.039841 40.661029 40.283588 39.907413 39.532287 39.158080 38.784583 38.411643 38.039062 37.666667