<?xml version="1.0"?>
<VTKFile type="ImageData" version="0.1" byte_order="LittleEndian">
  <ImageData WholeExtent="0 180 0 180 0 0" Origin="0.0 0.0 0.0" Spacing="0.05 0.05 1">
    <Piece Extent="0 180 0 180 0 0">
      <PointData Scalars="Temperature">
        <DataArray type="Float32" Name="Temperature" format="ascii">
32.000000 32.000000 32.000000 32.000000 32.000000 32.000000 32.000000 32.000000 32.000000 32.000000 32.000000 32.000000 32.000000 32.000000 32.000000 32.000000 32.000000 32.000000 32.000000 32.000000 32.000000 32.000000 32.000000 32.000000 32.000000 32.000000 32.000000 32.000000 32.000000 32.000000 32.000000 32.000000 32.000000 32.000000 32.000000 32.000000 32.000000 32.000000 32.000000 32.000000 32.000000 32.000000 32.000000 32.000000 32.000000 32.000000 32.000000 32.000000 32.000000 32.000000 32.000000 32.000000 32.000000 32.000000 32.000000 32.000000 32.000000 32.000000 32.000000 32.000000 32.000000 32.000000 32.000000 32.000000 32.000000 32.000000 32.000000 32.000000 32.000000 32.000000 32.000000 32.000000 32.000000 32.000000 32.000000 32.000000 32.000000 32.000000 32.000000 32.000000 32.000000 32.000000 32.000000 32.000000 32.000000 32.000000 32.000000 32.000000 32.000000 32.000000 32.000000 32.000000 32.000000 32.000000 32.000000 32.000000 32.000000 32.000000 32.000000 32.000000 32.000000 32.000000 32.000000 32.000000 32.000000 32.000000 32.000000 32.000000 32.000000 32.000000 32.000000 32.000000 32.000000 32.000000 32.000000 32.000000 32.000000 32.000000 32.000000 32.000000 32.000000 32.000000 32.000000 32.000000 32.000000 32.000000 32.000000 32.000000 32.000000 32.000000 32.000000 32.000000 32.000000 32.000000 32.000000 32.000000 32.000000 32.000000 32.000000 32.000000 32.000000 32.000000 32.000000 32.000000 32.000000 32.000000 32.000000 32.000000 32.000000 32.000000 32.000000 32.000000 32.000000 32.000000 32.000000 32.000000 32.000000 32.000000 32.000000 32.000000 32.000000 32.000000 32.000000 32.000000 32.000000 32.000000 32.000000 32.000000 32.000000 32.000000 32.000000 32.000000 32.000000 32.000000 32.000000 32.000000 32.000000 32.000000 32.000000 32.000000 32.000000
32.377778 32.362391 32.347046 32.331785 32.316648 32.301677 32.286908 32.272383 32.258133 32.244196 32.230601 32.217380 32.204557 32.192161 32.180209 32.168726 32.157722 32.147218 32.137217 32.127738 32.118775 32.110344 32.102432 32.095055 32.088190 32.081854 32.076016 32.070693 32.065849 32.061499 32.057602 32.054177 32.051174 32.048615 32.046445 32.044690 32.043289 32.042271 32.041571 32.041222 32.041153 32.041402 32.041894 32.042672 32.043655 32.044892 32.046297 32.047923 32.049682 32.051630 32.053676 32.055882 32.058150 32.060548 32.062979 32.065509 32.068042 32.070648 32.073229 32.075857 32.078436 32.081038 32.083570 32.086104 32.088549 32.090977 32.093302 32.095592 32.097769 32.099898 32.101905 32.103852 32.105673 32.107425 32.109049 32.110597 32.112017 32.113356 32.114569 32.115698 32.116704 32.117623 32.118423 32.119134 32.119731 32.120236 32.120632 32.120934 32.121132 32.121232 32.121232 32.121131 32.120934 32.120632 32.120235 32.119730 32.119132 32.118421 32.117620 32.116701 32.115694 32.114565 32.113351 32.112010 32.110589 32.109038 32.107413 32.105658 32.103834 32.101882 32.099871 32.097737 32.095554 32.093256 32.090922 32.088484 32.086027 32.083480 32.080931 32.078311 32.075710 32.073058 32.070448 32.067810 32.065240 32.062668 32.060190 32.057739 32.055409 32.053136 32.051014 32.048981 32.047128 32.045396 32.043876 32.042511 32.041388 32.040456 32.039796 32.039364 32.039235 32.039369 32.039838 32.040607 32.041742 32.043213 32.045080 32.047318 32.049983 32.053052 32.056575 32.060535 32.064973 32.069876 32.075279 32.081169 32.087576 32.094488 32.101926 32.109880 32.118363 32.127363 32.136886 32.146918 32.157459 32.168489 32.180003 32.191977 32.204398 32.217239 32.230481 32.244091 32.258045 32.272307 32.286847 32.301626 32.316609 32.331756 32.347027 32.362381 32.377778
32.755556 32.724783 32.694095 32.663573 32.633302 32.603360 32.573827 32.544776 32.516281 32.488407 32.461223 32.434781 32.409144 32.384351 32.360458 32.337490 32.315496 32.294487 32.274503 32.255541 32.237637 32.220772 32.204976 32.190216 32.176521 32.163843 32.152208 32.141555 32.131914 32.123208 32.115470 32.108611 32.102669 32.097543 32.093277 32.089758 32.087038 32.084993 32.083684 32.082975 32.082938 32.083426 32.084520 32.086064 32.088150 32.090610 32.093547 32.096786 32.100438 32.104320 32.108553 32.112947 32.117630 32.122408 32.127416 32.132459 32.137674 32.142865 32.148176 32.153411 32.158715 32.163898 32.169103 32.174148 32.179175 32.184007 32.188786 32.193345 32.197818 32.202053 32.206178 32.210051 32.213794 32.217278 32.220615 32.223692 32.226611 32.229272 32.231766 32.234008 32.236076 32.237901 32.239546 32.240957 32.242185 32.243187 32.244002 32.244601 32.245007 32.245207 32.245207 32.245007 32.244600 32.244001 32.243185 32.242182 32.240954 32.239542 32.237896 32.236070 32.234000 32.231757 32.229261 32.226597 32.223675 32.220594 32.217252 32.213763 32.210014 32.206134 32.202000 32.197754 32.193268 32.188694 32.183898 32.179045 32.173995 32.168922 32.163684 32.158464 32.153117 32.147833 32.142466 32.137209 32.131921 32.126795 32.121692 32.116806 32.112002 32.107472 32.103088 32.099036 32.095195 32.091747 32.088578 32.085862 32.083496 32.081645 32.080214 32.079361 32.079000 32.079280 32.080126 32.081674 32.083861 32.086812 32.090473 32.094958 32.100223 32.106370 32.113361 32.121287 32.130116 32.139927 32.150693 32.162479 32.175259 32.189087 32.203937 32.219847 32.236791 32.254793 32.273823 32.293889 32.314956 32.337019 32.360034 32.383984 32.408817 32.434501 32.460976 32.488198 32.516101 32.544626 32.573701 32.603260 32.633223 32.663516 32.694056 32.724764 32.755556
33.133333 33.087178 33.041149 32.995372 32.949968 32.905061 32.860764 32.817195 32.774455 32.732656 32.691881 32.652233 32.613780 32.576610 32.540773 32.506346 32.473358 32.441875 32.411903 32.383500 32.356648 32.331399 32.307711 32.285630 32.265095 32.246148 32.228705 32.212811 32.198360 32.185400 32.173807 32.163634 32.154738 32.147182 32.140802 32.135674 32.131617 32.128719 32.126782 32.125908 32.125881 32.126821 32.128494 32.131036 32.134198 32.138131 32.142574 32.147689 32.153205 32.159298 32.165686 32.172556 32.179619 32.187073 32.194623 32.202476 32.210334 32.218411 32.226410 32.234549 32.242535 32.250588 32.258423 32.266258 32.273821 32.281325 32.288512 32.295589 32.302315 32.308889 32.315087 32.321099 32.326720 32.332128 32.337138 32.341914 32.346295 32.350425 32.354166 32.357646 32.360748 32.363580 32.366046 32.368236 32.370076 32.371633 32.372853 32.373784 32.374392 32.374702 32.374701 32.374391 32.373782 32.372851 32.371630 32.370072 32.368232 32.366040 32.363572 32.360739 32.357635 32.354152 32.350408 32.346274 32.341889 32.337107 32.332090 32.326674 32.321043 32.315020 32.308808 32.302218 32.295474 32.288374 32.281161 32.273626 32.266028 32.258151 32.250268 32.242159 32.234108 32.225896 32.217812 32.209638 32.201669 32.193690 32.185998 32.178383 32.171139 32.164065 32.157450 32.151102 32.145303 32.139873 32.135083 32.130767 32.127183 32.124180 32.122003 32.120515 32.119946 32.120176 32.121419 32.123571 32.126829 32.131104 32.136576 32.143171 32.151052 32.160156 32.170629 32.182418 32.195651 32.210284 32.226423 32.244031 32.263195 32.283877 32.306146 32.329963 32.355375 32.382339 32.410879 32.440947 32.472545 32.505614 32.540136 32.576040 32.613289 32.651798 32.691511 32.732332 32.774184 32.816962 32.860574 32.904905 32.949848 32.995282 33.041091 33.087149 33.133333
33.511111 33.449578 33.388213 33.327182 33.266653 33.206783 33.147733 33.089647 33.032678 32.976950 32.922607 32.869749 32.818506 32.768955 32.721209 32.675317 32.631379 32.589415 32.549511 32.511657 32.475926 32.442281 32.410785 32.381370 32.354096 32.328865 32.305736 32.284582 32.265466 32.248232 32.232952 32.219443 32.207787 32.197775 32.189504 32.182741 32.177598 32.173818 32.171532 32.170460 32.170754 32.172110 32.174701 32.178202 32.182807 32.188172 32.194510 32.201459 32.209250 32.217507 32.226478 32.235775 32.245661 32.255737 32.266279 32.276886 32.287842 32.298744 32.309883 32.320862 32.331975 32.342832 32.353728 32.364287 32.374799 32.384906 32.394892 32.404419 32.413763 32.422607 32.431217 32.439300 32.447107 32.454375 32.461333 32.467749 32.473831 32.479377 32.484572 32.489241 32.493548 32.497346 32.500771 32.503708 32.506262 32.508349 32.510044 32.511291 32.512136 32.512550 32.512550 32.512135 32.511289 32.510041 32.508345 32.506258 32.503702 32.500764 32.497337 32.493536 32.489226 32.484553 32.479354 32.473804 32.467715 32.461292 32.454324 32.447046 32.439226 32.431127 32.422500 32.413634 32.404265 32.394708 32.384687 32.374540 32.363979 32.353366 32.342405 32.331474 32.320275 32.309198 32.297945 32.286913 32.275810 32.265036 32.254304 32.244013 32.233886 32.224317 32.215042 32.206446 32.198277 32.190909 32.184108 32.178232 32.173066 32.168949 32.165686 32.163598 32.162511 32.162724 32.164084 32.166869 32.170947 32.176574 32.183635 32.192365 32.202667 32.214751 32.228538 32.244211 32.261703 32.281174 32.302566 32.326011 32.351456 32.379007 32.408611 32.440346 32.474157 32.510092 32.548088 32.588165 32.630249 32.674331 32.720323 32.768188 32.817824 32.869164 32.922091 32.976514 33.032300 33.089333 33.147469 33.206573 33.266487 33.327062 33.388133 33.449538 33.511111
33.888889 33.811983 33.735287 33.659013 33.583361 33.508540 33.434738 33.362152 33.290952 33.221322 33.153405 33.087371 33.023333 32.961443 32.901779 32.844477 32.789579 32.737202 32.687353 32.640132 32.595508 32.553570 32.514250 32.477626 32.443594 32.412230 32.383391 32.357157 32.333349 32.312053 32.293057 32.276457 32.262008 32.249824 32.239625 32.231547 32.225278 32.220975 32.218299 32.217429 32.217997 32.220209 32.223667 32.228606 32.234600 32.241909 32.250084 32.259409 32.269414 32.280405 32.291895 32.304209 32.316846 32.330150 32.343610 32.357584 32.371557 32.385898 32.400094 32.414520 32.428672 32.442926 32.456792 32.470645 32.484015 32.497269 32.509961 32.522451 32.534319 32.545910 32.556838 32.567430 32.577333 32.586854 32.595675 32.604079 32.611785 32.619048 32.625626 32.631741 32.637192 32.642165 32.646498 32.650344 32.653574 32.656306 32.658449 32.660081 32.661149 32.661692 32.661692 32.661148 32.660079 32.658446 32.656301 32.653568 32.650336 32.646489 32.642153 32.637176 32.631723 32.625603 32.619019 32.611750 32.604036 32.595623 32.586791 32.577257 32.567337 32.556727 32.545776 32.534158 32.522258 32.509732 32.496996 32.483691 32.470261 32.456339 32.442392 32.428045 32.413786 32.399237 32.384899 32.370397 32.356239 32.342056 32.328358 32.314786 32.301847 32.289193 32.277324 32.265909 32.255432 32.245583 32.236829 32.228881 32.222185 32.216478 32.212179 32.209053 32.207493 32.207289 32.208809 32.211868 32.216805 32.223462 32.232148 32.242730 32.255487 32.270306 32.287435 32.306781 32.328559 32.352689 32.379356 32.408487 32.440233 32.474527 32.511483 32.551033 32.593257 32.638079 32.685543 32.735562 32.788142 32.843183 32.900654 32.960437 33.022466 33.086603 33.152750 33.220749 33.290471 33.361741 33.434403 33.508265 33.583150 33.658855 33.735185 33.811932 33.888889
34.266667 34.174396 34.082379 33.990864 33.900104 33.810334 33.721799 33.634713 33.549308 33.465772 33.384319 33.305102 33.228316 33.154078 33.082558 33.013833 32.948053 32.885248 32.825551 32.768946 32.715548 32.665298 32.618298 32.574441 32.533827 32.496302 32.461965 32.430619 32.402368 32.376974 32.354551 32.334821 32.317915 32.303513 32.291771 32.282329 32.275368 32.270491 32.267907 32.267183 32.268559 32.271565 32.276475 32.282785 32.290798 32.299980 32.310665 32.322291 32.335219 32.348863 32.363611 32.378855 32.395007 32.411445 32.428600 32.445842 32.463615 32.481290 32.499321 32.517084 32.535039 32.552576 32.570154 32.587184 32.604122 32.620404 32.636475 32.651807 32.666828 32.681046 32.694874 32.707857 32.720384 32.732045 32.743201 32.753487 32.763231 32.772115 32.780431 32.787907 32.794796 32.800873 32.806349 32.811045 32.815128 32.818463 32.821171 32.823164 32.824513 32.825176 32.825175 32.824512 32.823161 32.821167 32.818458 32.815121 32.811036 32.806338 32.800859 32.794778 32.787885 32.780403 32.772081 32.763189 32.753436 32.743139 32.731970 32.720292 32.707746 32.694740 32.680885 32.666635 32.651576 32.636200 32.620076 32.603733 32.586724 32.569610 32.551935 32.534287 32.516203 32.498292 32.480092 32.462223 32.444228 32.426735 32.409295 32.392535 32.376020 32.360369 32.345165 32.331013 32.317518 32.305264 32.293884 32.283936 32.275080 32.267848 32.261930 32.257826 32.255259 32.254695 32.255890 32.259276 32.264638 32.272375 32.282303 32.294781 32.309657 32.327250 32.347432 32.370485 32.396301 32.425122 32.456854 32.491699 32.529570 32.570630 32.614793 32.662179 32.712697 32.766423 32.823258 32.883233 32.946232 33.012244 33.081132 33.152842 33.227217 33.304159 33.383488 33.465069 33.548700 33.634208 33.721374 33.809996 33.899836 33.990670 34.082249 34.174332 34.266667
34.644444 34.536818 34.429486 34.322746 34.216880 34.112182 34.008914 33.907357 33.807745 33.710342 33.615345 33.522997 33.433454 33.346934 33.263546 33.183483 33.106804 33.033678 32.964113 32.898255 32.836060 32.777659 32.722952 32.672060 32.624830 32.581382 32.541508 32.505332 32.472596 32.443434 32.417539 32.395061 32.375646 32.359469 32.346126 32.335821 32.328105 32.323216 32.320657 32.320704 32.322815 32.327303 32.333586 32.342012 32.351960 32.363815 32.376920 32.391695 32.407450 32.424637 32.442539 32.461636 32.481192 32.501711 32.522442 32.543909 32.565357 32.587324 32.609057 32.631104 32.652724 32.674467 32.695615 32.716714 32.737073 32.757231 32.776533 32.795504 32.813531 32.831117 32.847697 32.863749 32.878758 32.893172 32.906527 32.919237 32.930894 32.941869 32.951810 32.961043 32.969274 32.976778 32.983317 32.989115 32.993987 32.998105 33.001336 33.003796 33.005406 33.006223 33.006223 33.005404 33.003793 33.001331 32.998099 32.993979 32.989105 32.983304 32.976761 32.969253 32.961017 32.951777 32.941829 32.930845 32.919178 32.906455 32.893083 32.878651 32.863620 32.847541 32.830929 32.813305 32.795235 32.776212 32.756848 32.736619 32.716176 32.694980 32.673720 32.651847 32.630076 32.607857 32.585926 32.563733 32.542027 32.520266 32.499203 32.478308 32.458330 32.438757 32.420323 32.402542 32.386127 32.370619 32.356703 32.343954 32.333023 32.323521 32.316062 32.310294 32.306793 32.305244 32.306182 32.309331 32.315182 32.323497 32.334723 32.348657 32.365703 32.385687 32.408968 32.435400 32.465294 32.498525 32.535359 32.575681 32.619710 32.667340 32.718738 32.773796 32.832632 32.895131 32.961357 33.031182 33.104616 33.181514 33.261833 33.345403 33.432134 33.521828 33.614348 33.709471 33.807015 33.906732 34.008405 34.111764 34.216559 34.322506 34.429331 34.536740 34.644444
35.022222 34.899250 34.776618 34.654658 34.533708 34.414083 34.296113 34.180081 34.066303 33.955026 33.846540 33.741050 33.638821 33.540005 33.444838 33.353419 33.265956 33.182486 33.103195 33.028059 32.957242 32.890658 32.828458 32.770494 32.716909 32.667494 32.622394 32.581339 32.544484 32.511500 32.482559 32.457274 32.435844 32.417824 32.403443 32.392204 32.384370 32.379390 32.377569 32.378300 32.381934 32.387811 32.396325 32.406768 32.419578 32.434001 32.450514 32.468325 32.487950 32.508558 32.530702 32.553523 32.577603 32.602064 32.627512 32.653059 32.679328 32.705432 32.732008 32.758176 32.784581 32.810362 32.836164 32.861157 32.885978 32.909834 32.933352 32.955783 32.977734 32.998510 33.018689 33.037636 33.055896 33.072894 33.089137 33.104113 33.118285 33.131207 33.143289 33.154153 33.164154 33.172978 33.180922 33.187736 33.193654 33.198491 33.202415 33.205303 33.207258 33.208219 33.208218 33.207256 33.205300 33.202410 33.198483 33.193644 33.187724 33.180907 33.172959 33.164130 33.154124 33.143253 33.131162 33.118229 33.104045 33.089054 33.072793 33.055773 33.037488 33.018511 32.998295 32.977476 32.955475 32.932984 32.909397 32.885459 32.860543 32.835439 32.809508 32.783578 32.757002 32.730637 32.703835 32.677472 32.650907 32.625026 32.599198 32.574308 32.549744 32.526380 32.503628 32.482341 32.461962 32.443313 32.425873 32.410428 32.396496 32.384821 32.374964 32.367624 32.362403 32.359954 32.359923 32.362914 32.368616 32.377582 32.389543 32.404999 32.423722 32.446157 32.472111 32.501974 32.535582 32.573271 32.614896 32.660739 32.710666 32.764903 32.823320 32.886084 32.953062 33.024360 33.099835 33.179531 33.263288 33.351089 33.442749 33.538194 33.637211 33.739668 33.845324 33.953996 34.065412 34.179343 34.295491 34.413589 34.533316 34.654374 34.776429 34.899158 35.022222
35.400000 35.261696 35.123772 34.986613 34.850583 34.716062 34.583387 34.452923 34.324973 34.199877 34.077892 33.959334 33.844403 33.733385 33.626421 33.523765 33.425493 33.331830 33.242784 33.158556 33.079082 33.004545 32.934811 32.870052 32.810064 32.755017 32.704636 32.659099 32.618063 32.581723 32.549667 32.522117 32.498595 32.479355 32.463854 32.452386 32.444345 32.440067 32.438885 32.441184 32.446233 32.454468 32.465099 32.478612 32.494161 32.512280 32.532073 32.554117 32.577472 32.602757 32.628994 32.656840 32.685285 32.715020 32.745016 32.775989 32.806902 32.838489 32.869720 32.901338 32.932331 32.963447 32.993700 33.023836 33.052909 33.081654 33.109173 33.136183 33.161844 33.186846 33.210415 33.233204 33.254511 33.274947 33.293883 33.311882 33.328389 33.343913 33.357975 33.371022 33.382653 33.393248 33.402480 33.410659 33.417534 33.423339 33.427896 33.431362 33.433632 33.434784 33.434783 33.433629 33.431358 33.427890 33.423331 33.417523 33.410646 33.402463 33.393226 33.382626 33.370989 33.357934 33.343862 33.328327 33.311805 33.293790 33.274834 33.254374 33.233038 33.210214 33.186605 33.161555 33.135836 33.108760 33.081162 33.052326 33.023145 32.992884 32.962486 32.931203 32.900017 32.868177 32.836691 32.804813 32.773568 32.742219 32.711795 32.681578 32.652588 32.624132 32.597211 32.571162 32.546958 32.523971 32.503136 32.483868 32.467056 32.452158 32.440015 32.430134 32.423299 32.419068 32.418167 32.420206 32.425850 32.434760 32.447539 32.463895 32.484371 32.508716 32.537410 32.570240 32.607622 32.649373 32.695844 32.746873 32.802747 32.863312 32.928790 32.999030 33.074185 33.154096 33.238849 33.328268 33.422370 33.520956 33.623976 33.731202 33.842519 33.957667 34.076470 34.198635 34.323930 34.452032 34.582660 34.715465 34.850125 34.986271 35.123551 35.261585 35.400000
35.777778 35.624155 35.470960 35.318608 35.167528 35.018111 34.870773 34.725873 34.583805 34.444882 34.309472 34.177831 34.050295 33.927055 33.808417 33.694499 33.585574 33.481686 33.383080 33.289721 33.201830 33.119295 33.042320 32.970715 32.904678 32.843938 32.788699 32.738612 32.693895 32.654122 32.619537 32.589635 32.564697 32.544143 32.528293 32.516494 32.509116 32.505430 32.505860 32.509606 32.517146 32.527611 32.541534 32.557978 32.577534 32.599202 32.623625 32.649745 32.678255 32.708050 32.739865 32.772556 32.806897 32.841715 32.877816 32.914012 32.951133 32.987990 33.025429 33.062273 33.099379 33.135594 33.171776 33.206813 33.241553 33.274937 33.307796 33.339133 33.369753 33.398732 33.426838 33.453226 33.478621 33.502261 33.524820 33.545621 33.565278 33.583202 33.599941 33.614993 33.628833 33.641046 33.652029 33.661453 33.669629 33.676313 33.681732 33.685722 33.688421 33.689747 33.689746 33.688418 33.685718 33.681725 33.676304 33.669617 33.661437 33.652010 33.641022 33.628803 33.614955 33.599894 33.583145 33.565208 33.545536 33.524716 33.502135 33.478468 33.453041 33.426615 33.398463 33.369431 33.338748 33.307337 33.274391 33.240904 33.206045 33.170870 33.134527 33.098126 33.060806 33.023714 32.985992 32.948812 32.911322 32.874708 32.838132 32.802777 32.767832 32.734463 32.701888 32.671245 32.641790 32.614623 32.589042 32.566097 32.545137 32.527155 32.511552 32.499259 32.489734 32.483841 32.481096 32.482295 32.487010 32.495966 32.508792 32.526142 32.547696 32.574035 32.604886 32.640758 32.681416 32.727296 32.778191 32.834466 32.895931 32.962877 33.035123 33.112884 33.195977 33.284538 33.378375 33.477548 33.581840 33.691236 33.805493 33.924521 34.048042 34.175896 34.307772 34.443441 34.582559 34.724839 34.869904 35.017419 35.166980 35.318212 35.470695 35.624026 35.777778
36.155556 35.986633 35.818177 35.650662 35.484534 35.320262 35.158259 34.998978 34.842786 34.690109 34.541260 34.396632 34.256471 34.121135 33.990795 33.865775 33.746163 33.632251 33.524043 33.421803 33.325447 33.235219 33.150947 33.072866 33.000714 32.934727 32.874555 32.820447 32.771965 32.729381 32.692171 32.660642 32.634183 32.613145 32.596832 32.585646 32.578806 32.576773 32.578681 32.585053 32.594940 32.608927 32.625987 32.646768 32.670166 32.696889 32.725766 32.757561 32.791039 32.827018 32.864211 32.903482 32.943505 32.985181 33.027160 33.070375 33.113464 33.157382 33.200776 33.244615 33.287568 33.330607 33.372441 33.414039 33.454161 33.493763 33.531671 33.568818 33.604106 33.638433 33.670789 33.702029 33.731234 33.759205 33.785122 33.809720 33.832281 33.853468 33.872662 33.890448 33.906304 33.920731 33.933305 33.944432 33.953787 33.961678 33.967876 33.972586 33.975671 33.977236 33.977235 33.975668 33.972581 33.967868 33.961669 33.953774 33.944415 33.933283 33.920704 33.906271 33.890407 33.872612 33.853406 33.832205 33.809627 33.785008 33.759066 33.731066 33.701825 33.670544 33.638138 33.603752 33.568394 33.531166 33.493162 33.453448 33.413195 33.371444 33.329433 33.286189 33.243001 33.198891 33.155185 33.110911 33.067416 33.023741 32.981240 32.938973 32.898286 32.858269 32.820239 32.783327 32.748811 32.715864 32.685713 32.657585 32.632643 32.610170 32.591263 32.575263 32.563193 32.554460 32.550006 32.549303 32.553213 32.561272 32.574259 32.591772 32.614508 32.642120 32.675222 32.713515 32.757532 32.807012 32.862406 32.923481 32.990604 33.063560 33.142631 33.227607 33.318686 33.415650 33.518612 33.627337 33.741853 33.861901 33.987422 34.118125 34.253872 34.394335 34.539298 34.688398 34.841349 34.997750 35.157258 35.319440 35.483903 35.650191 35.817872 35.986479 36.155556
36.533333 36.349127 36.165438 35.982766 35.801631 35.622504 35.445891 35.272221 35.101978 34.935534 34.773343 34.615709 34.463048 34.315589 34.173710 34.037552 33.907458 33.783478 33.665924 33.554750 33.450243 33.352261 33.261077 33.176448 33.098646 33.027330 32.962781 32.904559 32.852967 32.807468 32.768399 32.735126 32.708032 32.686383 32.670618 32.659906 32.654749 32.654218 32.658882 32.667718 32.681362 32.698700 32.720438 32.745370 32.774272 32.805856 32.840960 32.878220 32.918535 32.960476 33.004994 33.050608 33.098317 33.146600 33.196494 33.246459 33.297562 33.348260 33.399640 33.450175 33.500965 33.550517 33.599930 33.647766 33.695113 33.740601 33.785299 33.827919 33.869496 33.908838 33.946935 33.982699 34.017064 34.049051 34.079529 34.107630 34.134147 34.158326 34.180875 34.201153 34.219774 34.236209 34.250969 34.263637 34.274616 34.283594 34.290865 34.296223 34.299842 34.301622 34.301621 34.299839 34.296217 34.290858 34.283583 34.274601 34.263618 34.250946 34.236180 34.219738 34.201109 34.180820 34.158258 34.134063 34.107527 34.079404 34.048899 34.016881 33.982477 33.946668 33.908516 33.869110 33.827457 33.784748 33.739945 33.694334 33.646844 33.598842 33.549236 33.499461 33.448414 33.397582 33.345863 33.294777 33.243232 33.192764 33.142300 33.093373 33.044940 32.998511 32.953081 32.910122 32.868674 32.830158 32.793664 32.760548 32.729961 32.703183 32.679429 32.659897 32.643871 32.632459 32.625018 32.622564 32.624525 32.631825 32.643962 32.661765 32.684799 32.713798 32.748385 32.789203 32.835924 32.889097 32.948435 33.014393 33.086709 33.165747 33.251258 33.343511 33.442260 33.547679 33.659510 33.777833 33.902369 34.033102 34.169726 34.312133 34.459979 34.613072 34.771027 34.933571 35.100281 35.270813 35.444708 35.621561 35.800885 35.982226 36.165077 36.348951 36.533333
36.911111 36.711646 36.512736 36.314945 36.118806 35.924877 35.733649 35.545663 35.361357 35.181243 35.005689 34.835175 34.669987 34.510566 34.357111 34.210021 34.069400 33.935612 33.808656 33.688870 33.576148 33.470806 33.372632 33.281936 33.198394 33.122326 33.053297 32.991645 32.936829 32.889220 32.848165 32.814084 32.786213 32.765028 32.749657 32.740641 32.736999 32.739344 32.746583 32.759408 32.776618 32.798980 32.825190 32.856092 32.890281 32.928673 32.969773 33.014565 33.061471 33.111539 33.163121 33.217319 33.272435 33.329615 33.387129 33.446160 33.504964 33.564750 33.623785 33.683294 33.741572 33.799854 33.856483 33.912689 33.966886 34.020286 34.071391 34.121382 34.168864 34.214976 34.258433 34.300321 34.339477 34.376917 34.411604 34.444476 34.474623 34.502892 34.528501 34.552198 34.573326 34.592522 34.609257 34.624048 34.636487 34.646968 34.655202 34.661455 34.665553 34.667630 34.667629 34.665549 34.661449 34.655194 34.646957 34.636472 34.624028 34.609232 34.592491 34.573287 34.552149 34.528441 34.502818 34.474532 34.444365 34.411469 34.376753 34.339278 34.300081 34.258143 34.214627 34.168446 34.120882 34.070794 34.019576 33.966043 33.911691 33.855305 33.798467 33.739943 33.681386 33.621556 33.562154 33.501947 33.442664 33.383088 33.324957 33.267079 33.211178 33.156098 33.103527 33.052358 33.004224 32.958071 32.915465 32.875413 32.839399 32.806498 32.778104 32.753364 32.733574 32.717959 32.707710 32.702132 32.702312 32.707632 32.719072 32.736091 32.759562 32.789014 32.825213 32.867752 32.917291 32.973474 33.036857 33.107121 33.184719 33.269359 33.361387 33.460523 33.567009 33.680560 33.801317 33.928977 34.063578 34.204793 34.352556 34.506505 34.666479 34.832075 35.003042 35.178935 35.359418 35.544008 35.732298 35.923769 36.117954 36.314310 36.512324 36.711439 36.911111
37.288889 37.074185 36.860088 36.647188 36.436095 36.227363 36.021590 35.819279 35.621003 35.427200 35.238409 35.054986 34.877433 34.706013 34.541188 34.383120 34.232232 34.088577 33.952546 33.824078 33.703541 33.590758 33.486085 33.389226 33.300539 33.219607 33.146808 33.081602 33.024400 32.974540 32.932479 32.897433 32.869918 32.849028 32.835345 32.827841 32.827176 32.832197 32.843646 32.860246 32.882826 32.909986 32.942638 32.979268 33.020868 33.065813 33.115175 33.167228 33.223113 33.281019 33.342151 33.404627 33.469707 33.535460 33.603191 33.670943 33.740054 33.808564 33.877837 33.945934 34.014232 34.080839 34.147131 34.211286 34.274669 34.335549 34.395263 34.452187 34.507623 34.560067 34.610765 34.658348 34.703995 34.746474 34.786885 34.824138 34.859237 34.891238 34.921038 34.947835 34.972408 34.994097 35.013551 35.030250 35.044706 35.056531 35.066098 35.073149 35.077910 35.080252 35.080251 35.077906 35.073143 35.066089 35.056519 35.044689 35.030229 35.013525 34.994063 34.972366 34.947783 34.920973 34.891159 34.859139 34.824019 34.786739 34.746298 34.703781 34.658089 34.610453 34.559691 34.507172 34.451649 34.394620 34.334783 34.273761 34.210211 34.145862 34.079345 34.012478 33.943880 33.875437 33.805768 33.736805 33.667178 33.598840 33.530444 33.463939 33.398013 33.334587 33.272392 33.213298 33.156092 33.102573 33.051589 33.004856 32.961290 32.922508 32.887503 32.857783 32.832425 32.812819 32.798129 32.789627 32.786563 32.790087 32.799537 32.815941 32.838718 32.868777 32.905610 32.950009 33.001529 33.060845 33.127564 33.202245 33.284532 33.374869 33.472924 33.579024 33.692845 33.814599 33.943955 34.081012 34.225418 34.377160 34.535856 34.701385 34.873326 35.051456 35.235310 35.424572 35.618734 35.817395 36.020008 36.226102 36.435098 36.646465 36.859606 37.073949 37.288889
37.666667 37.436754 37.207487 36.979523 36.753481 36.530013 36.309688 36.093142 35.880881 35.673510 35.471454 35.275282 35.085326 34.902112 34.725870 34.557084 34.395868 34.242674 34.097493 33.960750 33.832312 33.712587 33.601312 33.498896 33.404944 33.319879 33.243174 33.175280 33.115539 33.064447 33.021210 32.986384 32.959038 32.939801 32.927604 32.923156 32.925250 32.934683 32.950107 32.972412 33.000111 33.034186 33.073015 33.117672 33.166402 33.220367 33.277693 33.339619 33.404168 33.472649 33.542996 33.616581 33.691270 33.768489 33.846060 33.925452 34.004470 34.084615 34.163702 34.243253 34.321123 34.398842 34.474330 34.549111 34.621197 34.692092 34.759921 34.826153 34.889044 34.950012 35.007456 35.062730 35.114386 35.163695 35.209369 35.252581 35.292205 35.329301 35.362904 35.393951 35.421632 35.446747 35.468643 35.487971 35.504229 35.517912 35.528666 35.536823 35.542172 35.544882 35.544880 35.542168 35.536816 35.528656 35.517899 35.504211 35.487948 35.468614 35.446711 35.421587 35.393894 35.362835 35.329216 35.292100 35.252453 35.209213 35.163506 35.114156 35.062452 35.007121 34.949609 34.888561 34.825576 34.759232 34.691273 34.620224 34.547959 34.472970 34.397242 34.319244 34.241052 34.161130 34.081619 34.000989 33.921418 33.841398 33.763115 33.685090 33.609495 33.534892 33.463406 33.393652 33.327688 33.264190 33.205127 33.149247 33.098410 33.051447 33.010098 32.973279 32.942603 32.917078 32.898182 32.885019 32.878930 32.879114 32.886776 32.901206 32.923475 32.952958 32.990594 33.035835 33.089488 33.151071 33.221262 33.299630 33.386726 33.482154 33.586338 33.698903 33.820147 33.949697 34.087726 34.233852 34.388124 34.550134 34.719812 34.896716 35.080662 35.271165 35.467936 35.670445 35.878305 36.090945 36.307893 36.528542 36.752349 36.978680 37.206940 37.436479 37.666667