# vtk DataFile Version 3.0
Steady-state temperature (Jacobi)
ASCII
DATASET STRUCTURED_POINTS
DIMENSIONS 181 181 1
ORIGIN 0.0 0.0 0.0
SPACING 0.05 0.05 1.0
POINT_DATA 32761
SCALARS Temperature float 1
LOOKUP_TABLE default
32.000000 32.000000 32.000000 32.000000 32.000000 32.000000 32.000000 32.000000
32.000000 32.000000 32.000000 32.000000 32.000000 32.000000 32.000000 32.000000
32.000000 32.000000 32.000000 32.000000 32.000000 32.000000 32.000000 32.000000
32.000000 32.000000 32.000000 32.000000 32.000000 32.000000 32.000000 32.000000
32.000000 32.000000 32.000000 32.000000 32.000000 32.000000 32.000000 32.000000
32.000000 32.000000 32.000000 32.000000 32.000000 32.000000 32.000000 32.000000
32.000000 32.000000 32.000000 32.000000 32.000000 32.000000 32.000000 32.000000
32.000000 32.000000 32.000000 32.000000 32.000000 32.000000 32.000000 32.000000
32.000000 32.000000 32.000000 32.000000 32.000000 32.000000 32.000000 32.000000
32.000000 32.000000 32.000000 32.000000 32.000000 32.000000 32.000000 32.000000
32.000000 32.000000 32.000000 32.000000 32.000000 32.000000 32.000000 32.000000
32.000000 32.000000 32.000000 32.000000 32.000000 32.000000 32.000000 32.000000
32.000000 32.000000 32.000000 32.000000 32.000000 32.000000 32.000000 32.000000
32.000000 32.000000 32.000000 32.000000 32.000000 32.000000 32.000000 32.000000
32.000000 32.000000 32.000000 32.000000 32.000000 32.000000 32.000000 32.000000
32.000000 32.000000 32.000000 32.000000 32.000000 32.000000 32.000000 32.000000
32.000000 32.000000 32.000000 32.000000 32.000000 32.000000 32.000000 32.000000
32.000000 32.000000 32.000000 32.000000 32.000000 32.000000 32.000000 32.000000
32.000000 32.000000 32.000000 32.000000 32.000000 32.000000 32.000000 32.000000
32.000000 32.000000 32.000000 32.000000 32.000000 32.000000 32.000000 32.000000
32.000000 32.000000 32.000000 32.000000 32.000000 32.000000 32.000000 32.000000
32.000000 32.000000 32.000000 32.000000 32.000000 32.000000 32.000000 32.000000
32.000000 32.000000 32.000000 32.000000 32.000000
32.377778 32.404506 32.431244 32.457999 32.484780 32.511597 32.538455 32.565366
32.592335 32.619372 32.646480 32.673671 32.700945 32.728315 32.755778 32.783346
32.811016 32.838798 32.866687 32.894692 32.922806 32.951037 32.979376 33.007829
33.036385 33.065048 33.093806 33.122660 33.151596 33.180614 33.209695 33.238840
33.268027 33.297255 33.326498 33.355754 33.384996 33.414219 33.443394 33.472515
33.501550 33.530490 33.559304 33.587981 33.616488 33.644812 33.672920 33.700797
33.728410 33.755743 33.782763 33.809453 33.835779 33.861727 33.887260 33.912365
33.937008 33.961175 33.984832 34.007967 34.030548 34.052563 34.073983 34.094795
34.114974 34.134508 34.153373 34.171560 34.189047 34.205827 34.221878 34.237196
34.251763 34.265573 34.278612 34.290876 34.302353 34.313038 34.322922 34.332003
34.340272 34.347728 34.354364 34.360179 34.365167 34.369330 34.372662 34.375164
34.376835 34.377672 34.377677 34.376849 34.375189 34.372698 34.369376 34.365226
34.360250 34.354449 34.347828 34.340389 34.332138 34.323076 34.313214 34.302552
34.291102 34.278867 34.265859 34.252083 34.237553 34.222276 34.206268 34.189537
34.172101 34.153970 34.135165 34.115696 34.095587 34.074850 34.053511 34.031582
34.009093 33.986056 33.962503 33.938447 33.913922 33.888942 33.863542 33.837735
33.811558 33.785024 33.758171 33.731012 33.703584 33.675899 33.647995 33.619884
33.591602 33.563159 33.534591 33.505907 33.477141 33.448301 33.419418 33.390500
33.361575 33.332649 33.303749 33.274879 33.246063 33.217302 33.188619 33.160013
33.131504 33.103091 33.074790 33.046597 33.018527 32.990575 32.962752 32.935053
32.907485 32.880042 32.852729 32.825540 32.798477 32.771531 32.744705 32.717987
32.691379 32.664869 32.638456 32.612128 32.585881 32.559706 32.533595 32.507539
32.481531 32.455559 32.429616 32.403692 32.377778
32.755556 32.809019 32.862500 32.916016 32.969586 33.023223 33.076950 33.130776
33.184723 33.238801 33.293029 33.347414 33.401976 33.456718 33.511659 33.566799
33.622155 33.677722 33.733518 33.789532 33.845780 33.902246 33.958945 34.015857
34.072992 34.130325 34.187865 34.245582 34.303479 34.361523 34.419715 34.478014
34.536418 34.594883 34.653402 34.711925 34.770443 34.828902 34.887287 34.945541
35.003647 35.061543 35.119208 35.176577 35.233628 35.290293 35.346546 35.402317
35.457580 35.512264 35.566340 35.619737 35.672426 35.724336 35.775439 35.825665
35.874985 35.923333 35.970680 36.016963 36.062156 36.106197 36.149064 36.190700
36.231082 36.270160 36.307913 36.344295 36.379290 36.412855 36.444976 36.475617
36.504766 36.532390 36.558482 36.583013 36.605976 36.627349 36.647127 36.665289
36.681835 36.696747 36.710024 36.721654 36.731635 36.739960 36.746628 36.751632
36.754973 36.756649 36.756659 36.755003 36.751682 36.746699 36.740053 36.731752
36.721796 36.710194 36.696947 36.682067 36.665558 36.647435 36.627701 36.606375
36.583464 36.558991 36.532962 36.505406 36.476331 36.445772 36.413738 36.380269
36.345378 36.309108 36.271475 36.232527 36.192284 36.150799 36.108093 36.064223
36.019214 35.973127 35.925989 35.877863 35.828779 35.778804 35.727967 35.676338
35.623946 35.570863 35.517119 35.462785 35.407890 35.352505 35.296659 35.240422
35.183819 35.126918 35.069744 35.012363 34.954794 34.897100 34.839300 34.781451
34.723568 34.665705 34.607873 34.550122 34.492459 34.434928 34.377533 34.320314
34.263270 34.206436 34.149809 34.093417 34.037254 33.981345 33.925678 33.870274
33.815119 33.760229 33.705587 33.651204 33.597062 33.543167 33.489500 33.436062
33.382833 33.329810 33.276971 33.224312 33.171809 33.119454 33.067225 33.015108
32.963084 32.911136 32.859244 32.807390 32.755556
33.133333 33.213544 33.293781 33.374071 33.454440 33.534915 33.615517 33.696278
33.777212 33.858351 33.939707 34.021310 34.103167 34.185308 34.267735 34.350476
34.433526 34.516912 34.600623 34.684682 34.769073 34.853816 34.938885 35.024299
35.110025 35.196076 35.282412 35.369041 35.455917 35.543042 35.630361 35.717873
35.805515 35.893279 35.981095 36.068951 36.156769 36.244532 36.332154 36.419613
36.506818 36.593741 36.680288 36.766424 36.852051 36.937131 37.021562 37.105303
37.188250 37.270359 37.351524 37.431702 37.510787 37.588733 37.665436 37.740852
37.814879 37.887475 37.958539 38.028033 38.095863 38.161990 38.226327 38.288839
38.349445 38.408115 38.464773 38.519394 38.571910 38.622299 38.670502 38.716499
38.760238 38.801706 38.840856 38.877677 38.912132 38.944213 38.973886 39.001147
39.025970 39.048351 39.068270 39.085725 39.100699 39.113193 39.123196 39.130707
39.135719 39.138234 39.138249 39.135764 39.130781 39.123302 39.113333 39.100875
39.085938 39.068525 39.048652 39.026320 39.001551 38.974349 38.944740 38.912732
38.878355 38.841619 38.802563 38.761198 38.717571 38.671695 38.623625 38.573379
38.521019 38.466565 38.410088 38.351613 38.291217 38.228929 38.164833 38.098964
38.031411 37.962211 37.891459 37.819197 37.745525 37.670484 37.594179 37.516655
37.438017 37.358310 37.277642 37.196057 37.113663 37.030502 36.946682 36.862242
36.777287 36.691854 36.606045 36.519892 36.433492 36.346874 36.260129 36.173281
36.086416 35.999551 35.912765 35.826071 35.739541 35.653182 35.567058 35.481170
35.395575 35.310270 35.225303 35.140665 35.056397 34.972486 34.888966 34.805816
34.723066 34.640691 34.558712 34.477102 34.395875 34.315001 34.234486 34.154301
34.074444 33.994884 33.915614 33.836602 33.757836 33.679283 33.600926 33.522734
33.444684 33.366746 33.288895 33.211099 33.133333
33.511111 33.618087 33.725099 33.832180 33.939370 34.046697 34.154202 34.261909
34.369859 34.478072 34.586588 34.695421 34.804611 34.914163 35.024117 35.134471
35.245261 35.356478 35.468156 35.580275 35.692866 35.805899 35.919402 36.033335
36.147720 36.262508 36.377713 36.493278 36.609211 36.725442 36.841974 36.958727
37.075696 37.192792 37.310001 37.427225 37.544443 37.661547 37.778510 37.895216
38.011628 38.127624 38.243162 38.358112 38.472427 38.585972 38.698694 38.810454
38.921197 39.030782 39.139149 39.246158 39.351748 39.455778 39.558188 39.658841
39.757677 39.854564 39.949443 40.042188 40.132745 40.220994 40.306885 40.390306
40.471213 40.549502 40.625135 40.698017 40.768117 40.835348 40.899686 40.961053
41.019430 41.074751 41.127000 41.176120 41.222100 41.264892 41.304489 41.340851
41.373973 41.403825 41.430402 41.453682 41.473662 41.490325 41.503670 41.513687
41.520375 41.523728 41.523748 41.520434 41.513787 41.503812 41.490512 41.473896
41.453967 41.430743 41.404225 41.374440 41.341389 41.305106 41.265596 41.222899
41.177024 41.128018 41.075895 41.020711 40.962483 40.901278 40.837117 40.770077
40.700184 40.627525 40.552134 40.474105 40.393477 40.310356 40.224786 40.136882
40.046692 39.954339 39.859877 39.763436 39.665071 39.564920 39.463041 39.359573
39.254578 39.148199 39.040494 38.931609 38.821601 38.710615 38.598706 38.486016
38.372596 38.258585 38.144029 38.029061 37.913722 37.798139 37.682345 37.566461
37.450512 37.334610 37.218774 37.103107 36.987619 36.872404 36.757465 36.642884
36.528659 36.414861 36.301480 36.188577 36.076136 35.964208 35.852769 35.741862
35.631457 35.521587 35.412217 35.303370 35.195009 35.087146 34.979742 34.872799
34.766277 34.660170 34.554435 34.449060 34.344001 34.239239 34.134729 34.030448
33.926351 33.822409 33.718578 33.614826 33.511111
33.888889 34.022655 34.156464 34.290364 34.424395 34.558606 34.693031 34.827721
34.962704 35.098032 35.233725 35.369834 35.506371 35.643386 35.780883 35.918908
36.057455 36.196569 36.336231 36.476481 36.617291 36.758695 36.900652 37.043191
37.186259 37.329878 37.473981 37.618583 37.763604 37.909051 38.054831 38.200942
38.347279 38.493829 38.640476 38.787198 38.933865 39.080448 39.226805 39.372898
39.518575 39.663789 39.808380 39.952293 40.095360 40.237519 40.378599 40.518530
40.657137 40.794348 40.929984 41.063972 41.196133 41.326391 41.454573 41.580602
41.704308 41.825619 41.944369 42.060490 42.173826 42.284313 42.391804 42.496241
42.597489 42.695495 42.790136 42.881367 42.969077 43.053229 43.133722 43.210528
43.283559 43.352791 43.418149 43.479616 43.537128 43.590673 43.640198 43.685694
43.727118 43.764465 43.797702 43.826826 43.851811 43.872656 43.889344 43.901874
43.910237 43.914432 43.914457 43.910311 43.901999 43.889522 43.872890 43.852104
43.827183 43.798128 43.764967 43.727701 43.686368 43.640971 43.591555 43.538129
43.480748 43.419424 43.354222 43.285161 43.212317 43.135714 43.055441 42.971528
42.884077 42.793125 42.698786 42.601105 42.500207 42.396145 42.289056 42.178999
42.066122 41.950491 41.832263 41.711508 41.588392 41.462989 41.335472 41.205916
41.074499 40.941297 40.806490 40.670152 40.532466 40.393502 40.253440 40.112347
39.970400 39.827660 39.684298 39.540368 39.396034 39.251343 39.106448 38.961389
38.816309 38.671239 38.526310 38.381544 38.237061 38.092871 37.949083 37.805699
37.662813 37.520419 37.378598 37.237335 37.096698 36.956664 36.817289 36.678542
36.540468 36.403027 36.266253 36.130101 35.994594 35.859681 35.725374 35.591621
35.458420 35.325719 35.193506 35.061726 34.930360 34.799352 34.668675 34.538272
34.408111 34.278136 34.148308 34.018574 33.888889
34.266667 34.427251 34.587891 34.748636 34.909545 35.070663 35.232051 35.393745
35.555809 35.718271 35.881195 36.044598 36.208545 36.373042 36.538150 36.703866
36.870247 37.037277 37.205009 37.373412 37.542535 37.712335 37.882850 38.054024
38.225888 38.398370 38.571492 38.745168 38.919409 39.094114 39.269283 39.444799
39.620653 39.796712 39.972955 40.149233 40.325516 40.501642 40.677567 40.853118
41.028239 41.202746 41.376574 41.549528 41.721535 41.892391 42.062017 42.230203
42.396863 42.561785 42.724878 42.885928 43.044844 43.201413 43.355544 43.507028
43.655775 43.801583 43.944366 44.083932 44.220199 44.352985 44.482216 44.607723
44.729438 44.847207 44.960972 45.070590 45.176013 45.277115 45.373855 45.466122
45.553884 45.637044 45.715578 45.789404 45.858503 45.922808 45.982305 46.036938
46.086700 46.131544 46.171468 46.206436 46.236446 46.261473 46.281516 46.296560
46.306604 46.311640 46.311670 46.306693 46.296710 46.281730 46.261754 46.236798
46.206865 46.171980 46.132147 46.087401 46.037748 45.983234 45.923867 45.859706
45.790763 45.717109 45.638763 45.555808 45.468270 45.376247 45.279771 45.178957
45.073844 44.964562 44.851159 44.733781 44.612484 44.487428 44.358678 44.226408
44.090692 43.951715 43.809558 43.664417 43.516378 43.365647 43.212313 43.056588
42.898563 42.738456 42.576357 42.412485 42.246928 42.079904 41.911498 41.741923
41.571259 41.399713 41.227358 41.054394 40.880883 40.707015 40.532844 40.358548
40.184170 40.009874 39.835692 39.661776 39.488145 39.314936 39.142156 38.969928
38.798249 38.627224 38.456839 38.287185 38.118238 37.950073 37.782657 37.616048
37.450207 37.285177 37.120910 36.957438 36.794704 36.632727 36.471446 36.310867
36.150926 35.991615 35.832868 35.674667 35.516945 35.359674 35.202785 35.046243
34.889979 34.733951 34.578091 34.422351 34.266667
34.644444 34.831884 35.019386 35.207018 35.394834 35.582906 35.771282 35.960035
36.149203 36.338861 36.529037 36.719805 36.911182 37.103239 37.295980 37.489475
37.683712 37.878756 38.074581 38.271247 38.468710 38.667023 38.866127 39.066065
39.266761 39.468246 39.670430 39.873331 40.076840 40.280965 40.485577 40.690672
40.896105 41.101856 41.307762 41.513793 41.719766 41.925638 42.131213 42.336433
42.541086 42.745104 42.948262 43.150481 43.351525 43.551305 43.749579 43.946247
44.141063 44.333922 44.524573 44.712910 44.898682 45.081780 45.261957 45.439105
45.612985 45.783491 45.950393 46.113592 46.272867 46.428128 46.579169 46.725906
46.868150 47.005828 47.138766 47.266901 47.390078 47.508245 47.621264 47.729092
47.831608 47.928782 48.020509 48.106765 48.187462 48.262585 48.332061 48.395879
48.453981 48.506360 48.552971 48.593811 48.628845 48.658073 48.681470 48.699038
48.710763 48.716645 48.716680 48.710868 48.699215 48.681721 48.658401 48.629257
48.594313 48.553570 48.507065 48.454801 48.396826 48.333147 48.263824 48.188867
48.108353 48.022298 47.930791 47.833856 47.731601 47.624057 47.511348 47.393516
47.270701 47.142957 47.010442 46.873219 46.731464 46.585251 46.434774 46.280115
46.121483 45.958970 45.792800 45.623070 45.450018 45.273746 45.094499 44.912385
44.727655 44.540418 44.350927 44.159291 43.965763 43.770449 43.573600 43.375314
43.175837 42.975261 42.773823 42.571603 42.368830 42.165572 41.962045 41.758307
41.554556 41.350839 41.147338 40.944085 40.741248 40.538843 40.337021 40.135785
39.935267 39.735457 39.536470 39.338283 39.140993 38.944565 38.749079 38.554488
38.360856 38.168127 37.976347 37.785454 37.595476 37.406344 37.218072 37.030587
36.843887 36.657895 36.472597 36.287912 36.103815 35.920225 35.737105 35.554374
35.371985 35.189860 35.007942 34.826159 34.644444
35.022222 35.236557 35.450966 35.665518 35.880292 36.095349 36.310772 36.526610
36.742950 36.959829 37.177334 37.395490 37.614383 37.834024 38.054495 38.275792
38.497993 38.721077 38.945116 39.170072 39.396007 39.622867 39.850704 40.079444
40.309128 40.539662 40.771076 41.003254 41.236214 41.469818 41.704069 41.938810
42.174029 42.409548 42.645339 42.881205 43.117101 43.352812 43.588278 43.823267
44.057703 44.291339 44.524086 44.755681 44.986027 45.214847 45.442034 45.667305
45.890542 46.111459 46.329933 46.545676 46.758562 46.968305 47.174780 47.377705
47.576958 47.772267 47.963515 48.150443 48.332940 48.510762 48.683809 48.851852
49.014804 49.172455 49.324727 49.471433 49.612507 49.747781 49.877202 50.000623
50.118002 50.229212 50.334222 50.432923 50.525294 50.611244 50.690760 50.763767
50.830257 50.890172 50.943507 50.990217 51.030302 51.063730 51.090499 51.110590
51.124004 51.130730 51.130770 51.124124 51.110792 51.090786 51.064106 51.030775
50.990792 50.944193 50.890979 50.831197 50.764851 50.692003 50.612662 50.526903
50.434741 50.336269 50.231511 50.120575 50.003494 49.880399 49.751330 49.616439
49.475780 49.329522 49.177732 49.020601 48.858208 48.690765 48.518361 48.341227
48.159465 47.973322 47.782909 47.588489 47.390180 47.188258 46.982846 46.774228
46.562532 46.348046 46.130897 45.911379 45.689613 45.465891 45.240330 45.013218
44.784664 44.554946 44.324164 44.092585 43.860296 43.627551 43.394424 43.161153
42.927797 42.694576 42.461533 42.228871 41.996617 41.764952 41.533889 41.303588
41.074046 40.845404 40.617642 40.390881 40.165089 39.940363 39.716660 39.494058
39.272501 39.052048 38.832633 38.614296 38.396963 38.180657 37.965296 37.750885
37.537339 37.324647 37.112719 36.901531 36.690990 36.481060 36.271647 36.062703
35.854136 35.645886 35.437866 35.230005 35.022222
35.400000 35.641276 35.882633 36.124160 36.365929 36.608032 36.850533 37.093528
37.337068 37.581249 37.826110 38.071746 38.318181 38.565509 38.813736 39.062951
39.313143 39.564396 39.816679 40.070068 40.324510 40.580073 40.836684 41.094396
41.353116 41.612884 41.873582 42.135238 42.397710 42.661010 42.924971 43.189590
43.454677 43.720209 43.985975 44.251934 44.517854 44.783675 45.049143 45.314183
45.578521 45.842066 46.104528 46.365800 46.625578 46.883743 47.139980 47.394159
47.645957 47.895237 48.141673 48.385122 48.625259 48.861940 49.094844 49.323828
49.548579 49.768960 49.984671 50.195581 50.401405 50.602023 50.797168 50.986734
51.170473 51.348291 51.519966 51.685415 51.844439 51.996973 52.142838 52.281983
52.414255 52.539612 52.657925 52.769165 52.873222 52.970076 53.059638 53.141895
53.216775 53.284273 53.344331 53.396948 53.442082 53.479733 53.509872 53.532501
53.547602 53.555178 53.555223 53.547737 53.532729 53.510196 53.480158 53.442615
53.397597 53.345105 53.285184 53.217835 53.143118 53.061039 52.971674 52.875035
52.771215 52.660233 52.542202 52.417153 52.285218 52.146438 52.000970 51.848868
51.690310 51.525364 51.354233 51.177000 50.993890 50.804999 50.610577 50.410732
50.205736 49.995708 49.780938 49.561556 49.337868 49.110012 48.878304 48.642888
48.404090 48.162054 47.917110 47.669402 47.419261 47.166823 46.912417 46.656174
46.398411 46.139251 45.879000 45.617767 45.355846 45.093330 44.830495 44.567418
44.304357 44.041372 43.778699 43.516380 43.254631 42.993473 42.733100 42.473516
42.214891 41.957212 41.700626 41.445102 41.190764 40.937567 40.685611 40.434838
40.185325 39.937003 39.689927 39.444016 39.199305 38.955706 38.713234 38.471792
38.231379 37.991893 37.753314 37.515540 37.278533 37.042189 36.806459 36.571238
36.336463 36.102034 35.867876 35.633893 35.400000
35.777778 36.046043 36.314404 36.582947 36.851774 37.120961 37.390615 37.660799
37.931622 38.203135 38.475447 38.748592 39.022678 39.297721 39.573825 39.850988
40.129307 40.408761 40.689439 40.971296 41.254412 41.538720 41.824286 42.111019
42.398973 42.688031 42.978231 43.269430 43.561648 43.854717 44.148640 44.443221
44.738443 45.034085 45.330110 45.626272 45.922513 46.218563 46.514345 46.809566
47.104130 47.397724 47.690234 47.981330 48.270881 48.558544 48.844175 49.127419
49.408123 49.685925 49.960664 50.231978 50.499701 50.763474 51.023132 51.278322
51.528883 51.774474 52.014941 52.249959 52.479385 52.702912 52.920411 53.131596
53.336353 53.534422 53.725704 53.909965 54.087122 54.256967 54.419435 54.574344
54.721643 54.861175 54.992906 55.116701 55.232537 55.340304 55.439987 55.531498
55.614828 55.689908 55.756734 55.815255 55.865470 55.907341 55.940871 55.966034
55.982834 55.991258 55.991308 55.982985 55.966288 55.941232 55.907815 55.866064
55.815978 55.757597 55.690922 55.616008 55.532860 55.441549 55.342084 55.234556
55.118982 54.995474 54.864058 54.724868 54.577942 54.423441 54.261414 54.092048
53.915408 53.731708 53.541029 53.343611 53.139552 52.929118 52.712422 52.489756
52.261248 52.027211 51.787787 51.543308 51.293927 51.039992 50.781661 50.519295
50.253058 49.983316 49.710234 49.434180 49.155315 48.874007 48.590409 48.304882
48.017569 47.728821 47.438767 47.147744 46.855864 46.563448 46.270591 45.977591
45.684526 45.391670 45.099082 44.807012 44.515497 44.224764 43.934828 43.645890
43.357945 43.071169 42.785537 42.501198 42.218112 41.936400 41.656006 41.377025
41.099388 40.823165 40.548273 40.274761 40.002534 39.731618 39.461910 39.193415
38.926024 38.659722 38.394394 38.130009 37.866450 37.603667 37.341544 37.080016
36.818969 36.558326 36.297975 36.037827 35.777778
36.155556 36.450867 36.746280 37.041904 37.337831 37.634176 37.931018 38.228478
38.526619 38.825562 39.125356 39.426121 39.727886 40.030770 40.334782 40.640034
40.946514 41.254326 41.563436 41.873936 42.185767 42.499011 42.813582 43.129546
43.446792 43.765369 44.085136 44.406126 44.728168 45.051275 45.375248 45.700078
46.025537 46.351594 46.677993 47.004679 47.331369 47.657988 47.984223 48.309979
48.634920 48.958929 49.281649 49.602943 49.922438 50.239980 50.555181 50.867874
51.177663 51.484370 51.787592 52.087148 52.382635 52.673868 52.960451 53.242201
53.518734 53.789872 54.055246 54.314689 54.567852 54.814582 55.054552 55.287626
55.513503 55.732065 55.943038 56.146325 56.341681 56.529026 56.708147 56.878980
57.041342 57.195186 57.340356 57.476820 57.604448 57.723220 57.833030 57.933866
58.025645 58.108363 58.181955 58.246420 58.301712 58.347832 58.384748 58.412463
58.430958 58.440236 58.440292 58.431125 58.412743 58.385146 58.348355 58.302367
58.247218 58.182907 58.109483 58.026948 57.935369 57.834751 57.725182 57.606674
57.479335 57.343187 57.198363 57.044896 56.882945 56.712559 56.533924 56.347106
56.152320 55.949649 55.739340 55.521493 55.296386 55.064137 54.825051 54.579267
54.327115 54.068749 53.804525 53.534608 53.259375 52.979002 52.693881 52.404194
52.110344 51.812516 51.511117 51.206332 50.898568 50.588002 50.275039 49.959845
49.642814 49.324100 49.004084 48.682901 48.360915 48.038243 47.715227 47.391962
47.068767 46.745716 46.423101 46.100972 45.779594 45.458995 45.139410 44.820846
44.503509 44.187383 43.872644 43.559258 43.247372 42.936931 42.628054 42.320670
42.014871 41.710570 41.407832 41.106558 40.806787 40.508410 40.211442 39.915765
39.621372 39.328139 39.036039 38.744943 38.454804 38.165494 37.876949 37.589038
37.301685 37.014762 36.728177 36.441810 36.155556
36.533333 36.855746 37.178275 37.501028 37.824130 38.147674 38.471793 38.796564
39.122121 39.448528 39.775917 40.104333 40.433908 40.764665 41.096729 41.430103
41.764905 42.101112 42.438833 42.778018 43.118763 43.460992 43.804787 44.150040
44.496817 44.844980 45.194576 45.545435 45.897583 46.250819 46.605146 46.960330
47.316350 47.672941 48.030058 48.387403 48.744906 49.102241 49.459311 49.815764
50.171478 50.526076 50.879414 51.231092 51.580948 51.928563 52.273757 52.616100
52.955397 53.291210 53.623337 53.951335 54.274997 54.593886 54.907794 55.216292
55.519178 55.816038 56.106681 56.390709 56.667946 56.938021 57.200773 57.455858
57.703135 57.942291 58.173207 58.395602 58.609377 58.814285 59.010248 59.197052
59.374638 59.542823 59.701568 59.850718 59.990247 60.120031 60.240054 60.350217
60.450514 60.540866 60.621273 60.691677 60.752081 60.802444 60.842770 60.873032
60.893235 60.903366 60.903426 60.893417 60.873339 60.843207 60.803017 60.752800
60.692551 60.622315 60.542090 60.451939 60.351860 60.241937 60.122176 59.992681
59.853466 59.704662 59.546295 59.378521 59.201384 59.015068 58.819635 58.615302
58.402149 58.180427 57.950235 57.711859 57.465421 57.211236 56.949449 56.680407
56.404271 56.121420 55.832030 55.536504 55.235034 54.928040 54.615725 54.298525
53.976646 53.650534 53.320396 52.986681 52.649590 52.309570 51.966815 51.621763
51.274594 50.925733 50.575342 50.223829 49.871337 49.518250 49.164690 48.811017
48.457325 48.103948 47.750957 47.398654 47.047084 46.696519 46.346978 45.998702
45.651686 45.306136 44.962026 44.619531 44.278600 43.939378 43.601796 43.265966
42.931802 42.599387 42.268618 41.939552 41.612072 41.286206 40.961830 40.638946
40.317420 39.997232 39.678243 39.360410 39.043591 38.727725 38.412669 38.098343
37.784606 37.471365 37.158481 36.845847 36.533333
36.911111 37.260687 37.610387 37.960343 38.310666 38.661496 39.012930 39.365112
39.718121 40.072105 40.427123 40.783320 41.140736 41.499511 41.859662 42.221322
42.584483 42.949268 43.315641 43.683715 44.053423 44.424863 44.797937 45.172726
45.549100 45.927121 46.306623 46.687646 47.069992 47.453674 47.838461 48.224341
48.611044 48.998534 49.386507 49.774897 50.163367 50.551825 50.939901 51.327475
51.714149 52.099776 52.483932 52.866447 53.246874 53.625022 54.000428 54.372885
54.741914 55.107298 55.468552 55.825450 56.177508 56.524499 56.865944 57.201620
57.531062 57.854052 58.170148 58.479145 58.780623 59.074397 59.360076 59.637494
59.906295 60.166336 60.417295 60.659053 60.891325 61.114017 61.326881 61.529843
61.722693 61.905377 62.077719 62.239684 62.391126 62.532026 62.662265 62.781835
62.890645 62.988692 63.075908 63.152296 63.217805 63.272441 63.316169 63.348997
63.370903 63.381891 63.381957 63.371101 63.349331 63.316644 63.273064 63.218585
63.153246 63.077040 62.990024 62.892193 62.783621 62.664310 62.534356 62.393769
62.242669 62.081078 61.909145 61.726906 61.534544 61.332110 61.119822 60.897752
60.666154 60.425124 60.174950 59.915755 59.647863 59.371419 59.086786 58.794130
58.493846 58.186123 57.871386 57.549839 57.221933 56.887886 56.548167 56.203004
55.852879 55.498023 55.138924 54.775811 54.409174 54.039233 53.666471 53.291097
52.913582 52.534117 52.153156 51.770869 51.387688 51.003759 50.619488 50.234995
49.850656 49.466563 49.083062 48.700216 48.318337 47.937460 47.557862 47.179552
46.802770 46.427498 46.053943 45.682063 45.312028 44.943773 44.577435 44.212929
43.850358 43.489620 43.130787 42.773740 42.418522 42.065000 41.713189 41.362948
41.014264 40.666988 40.321084 39.976398 39.632871 39.290348 38.948749 38.607920
38.267763 37.928128 37.588901 37.249938 36.911111
37.288889 37.665690 38.042631 38.419841 38.797469 39.175629 39.554475 39.934107
40.314681 40.696277 41.079052 41.463063 41.848466 42.235294 42.623695 43.013678
43.405382 43.798786 44.194018 44.591027 44.989926 45.390631 45.793238 46.197628
46.603878 47.011832 47.421544 47.832822 48.245695 48.659931 49.075533 49.492231
49.909998 50.328528 50.747763 51.167358 51.587225 52.006984 52.426516 52.845408
53.263510 53.680378 54.095837 54.509414 54.920910 55.329829 55.735952 56.138766
56.538034 56.933235 57.324120 57.710164 58.091113 58.466445 58.835907 59.198988
59.555443 59.904778 60.246759 60.580918 60.907039 61.224684 61.533658 61.833557
62.124213 62.405260 62.676555 62.937774 63.188799 63.429348 63.659330 63.878502
64.086798 64.284013 64.470104 64.644900 64.808376 64.960395 65.100945 65.229919
65.347314 65.453048 65.547126 65.629487 65.700138 65.759038 65.806193 65.841579
65.865200 65.877044 65.877115 65.865414 65.841939 65.806707 65.759711 65.700982
65.630513 65.548350 65.454486 65.348986 65.231847 65.103154 64.962910 64.811229
64.648121 64.473728 64.288078 64.091344 63.883572 63.664970 63.435606 63.195729
62.945429 62.684996 62.414546 62.134410 61.844732 61.545883 61.238034 60.921595
60.596759 60.263973 59.923453 59.575674 59.220872 58.859545 58.491941 58.118579
57.739711 57.355867 56.967301 56.574547 56.177853 55.777750 55.374473 54.968544
54.560182 54.149891 53.737871 53.324602 52.910258 52.495295 52.079858 51.664371
51.248952 50.833988 50.419567 50.006042 49.593469 49.182162 48.772146 48.363700
47.956818 47.551740 47.148432 46.747096 46.347673 45.950326 45.554974 45.161744
44.770533 44.381434 43.994324 43.609264 43.226117 42.844911 42.465496 42.087872
41.711880 41.337492 40.964541 40.592975 40.222625 39.853415 39.485174 39.117807
38.751145 38.385075 38.019433 37.654089 37.288889
37.666667 38.070761 38.475001 38.879545 39.284526 39.690110 40.096411 40.503602
40.911777 41.321111 41.731677 42.143646 42.557070 42.972114 43.388801 43.807291
44.227576 44.649806 45.073942 45.500116 45.928259 46.358485 46.790687 47.224961
47.661160 48.099358 48.539369 48.981239 49.424744 49.869899 50.316439 50.764350
51.213325 51.663316 52.113976 52.565224 53.016672 53.468205 53.919398 54.370103
54.819857 55.268482 55.715484 56.160655 56.603474 57.043707 57.480810 57.914530
58.344308 58.769875 59.190663 59.606394 60.016501 60.420703 60.818440 61.209437
61.593148 61.969310 62.337401 62.697174 63.048139 63.390070 63.722513 64.045270
64.357928 64.660316 64.952066 65.233037 65.502906 65.761563 66.008728 66.244321
66.468106 66.680027 66.879888 67.067656 67.243173 67.406423 67.557280 67.695743
67.821713 67.935197 68.036124 68.124503 68.200283 68.263476 68.314048 68.352009
68.377339 68.390045 68.390122 68.377570 68.352398 68.314600 68.264201 68.201190
68.125607 68.037439 67.936744 67.823510 67.697815 67.559653 67.409125 67.246236
67.071115 66.883778 66.684390 66.472985 66.249762 66.014779 65.768278 65.510339
65.241249 64.961117 64.670275 64.368861 64.057253 63.735621 63.404384 63.063742
62.714156 62.355853 61.989328 61.614832 61.232892 60.843774 60.448030 60.045936
59.638060 59.224684 58.806383 58.383436 57.956418 57.525599 57.091547 56.654516
56.215057 55.773405 55.330090 54.885318 54.439594 53.993095 53.546294 53.099335
52.652656 52.206368 51.760869 51.316238 50.872832 50.430696 49.990146 49.551193
49.114112 48.678883 48.245740 47.814633 47.385754 46.959028 46.534608 46.112392
45.692496 45.274797 44.859375 44.446090 44.034984 43.625903 43.218859 42.813684
42.410359 42.008709 41.608688 41.210113 40.812912 40.416902 40.021987 39.627986
39.234780 38.842193 38.450089 38.058297 37.666667
38.044444 38.475895 38.907510 39.339443 39.771867 40.204919 40.638780 41.073568
41.509468 41.946574 42.385072 42.825032 43.266637 43.709930 44.155086 44.602118
45.051192 45.502288 45.955557 46.410947 46.868590 47.328395 47.790477 48.254705
48.721168 49.189694 49.660347 50.132912 50.607422 51.083618 51.561501 52.040767
52.521384 53.003001 53.485551 53.968639 54.452160 54.935678 55.419051 55.901801
56.383750 56.864385 57.343494 57.820529 58.295249 58.767079 59.235752 59.700673
60.161553 60.617783 61.069064 61.514780 61.954623 62.387985 62.814558 63.233746
63.645250 64.048496 64.443201 64.828821 65.205096 65.571519 65.927858 66.273647
66.608687 66.932559 67.245097 67.545933 67.834933 68.111780 68.376372 68.628440
68.867915 69.094571 69.308366 69.509118 69.696805 69.871282 70.032546 70.180484