# vtk DataFile Version 3.0
Steady-state temperature (Jacobi)
ASCII
DATASET STRUCTURED_POINTS
DIMENSIONS 181 181 1
ORIGIN 0.0 0.0 0.0
SPACING 0.05 0.05 1.0
POINT_DATA 32761
SCALARS Temperature float 1
LOOKUP_TABLE default
32.000000 32.000000 32.000000 32.000000 32.000000 32.000000 32.000000 32.000000
32.000000 32.000000 32.000000 32.000000 32.000000 32.000000 32.000000 32.000000
32.000000 32.000000 32.000000 32.000000 32.000000 32.000000 32.000000 32.000000
32.000000 32.000000 32.000000 32.000000 32.000000 32.000000 32.000000 32.000000
32.000000 32.000000 32.000000 32.000000 32.000000 32.000000 32.000000 32.000000
32.000000 32.000000 32.000000 32.000000 32.000000 32.000000 32.000000 32.000000
32.000000 32.000000 32.000000 32.000000 32.000000 32.000000 32.000000 32.000000
32.000000 32.000000 32.000000 32.000000 32.000000 32.000000 32.000000 32.000000
32.000000 32.000000 32.000000 32.000000 32.000000 32.000000 32.000000 32.000000
32.000000 32.000000 32.000000 32.000000 32.000000 32.000000 32.000000 32.000000
32.000000 32.000000 32.000000 32.000000 32.000000 32.000000 32.000000 32.000000
32.000000 32.000000 32.000000 32.000000 32.000000 32.000000 32.000000 32.000000
32.000000 32.000000 32.000000 32.000000 32.000000 32.000000 32.000000 32.000000
32.000000 32.000000 32.000000 32.000000 32.000000 32.000000 32.000000 32.000000
32.000000 32.000000 32.000000 32.000000 32.000000 32.000000 32.000000 32.000000
32.000000 32.000000 32.000000 32.000000 32.000000 32.000000 32.000000 32.000000
32.000000 32.000000 32.000000 32.000000 32.000000 32.000000 32.000000 32.000000
32.000000 32.000000 32.000000 32.000000 32.000000 32.000000 32.000000 32.000000
32.000000 32.000000 32.000000 32.000000 32.000000 32.000000 32.000000 32.000000
32.000000 32.000000 32.000000 32.000000 32.000000 32.000000 32.000000 32.000000
32.000000 32.000000 32.000000 32.000000 32.000000 32.000000 32.000000 32.000000
32.000000 32.000000 32.000000 32.000000 32.000000 32.000000 32.000000 32.000000
32.000000 32.000000 32.000000 32.000000 32.000000
32.377778 32.363322 32.348903 32.334559 32.320324 32.306236 32.292328 32.278636
32.265189 32.252024 32.239163 32.226641 32.214478 32.202705 32.191335 32.180400
32.169904 32.159878 32.150319 32.141257 32.132681 32.124620 32.117057 32.110019
32.103482 32.097473 32.091960 32.086972 32.082469 32.078482 32.074962 32.071943
32.069369 32.067277 32.065603 32.064388 32.063561 32.063166 32.063126 32.063488
32.064169 32.065221 32.066553 32.068224 32.070134 32.072348 32.074761 32.077441
32.080280 32.083349 32.086535 32.089914 32.093370 32.096982 32.100631 32.104401
32.108170 32.112025 32.115845 32.119716 32.123521 32.127347 32.131078 32.134800
32.138405 32.141975 32.145407 32.148782 32.152003 32.155147 32.158126 32.161013
32.163725 32.166333 32.168762 32.171076 32.173209 32.175219 32.177049 32.178750
32.180274 32.181664 32.182881 32.183960 32.184871 32.185640 32.186246 32.186707
32.187009 32.187162 32.187162 32.187008 32.186706 32.186244 32.185638 32.184868
32.183957 32.182877 32.181659 32.180267 32.178742 32.177039 32.175206 32.173194
32.171058 32.168741 32.166308 32.163695 32.160977 32.158084 32.155098 32.151944
32.148713 32.145326 32.141881 32.138295 32.134673 32.130930 32.127176 32.123324
32.119489 32.115584 32.111725 32.107828 32.104010 32.100187 32.096477 32.092798
32.089268 32.085806 32.082529 32.079360 32.076412 32.073611 32.071066 32.068709
32.066644 32.064805 32.063292 32.062044 32.061154 32.060567 32.060368 32.060508
32.061066 32.061996 32.063369 32.065146 32.067390 32.070065 32.073227 32.076844
32.080965 32.085559 32.090668 32.096266 32.102385 32.108999 32.116135 32.123767
32.131914 32.140551 32.149689 32.159301 32.169392 32.179934 32.190925 32.202335
32.214154 32.226352 32.238913 32.251803 32.265002 32.278475 32.292195 32.306127
32.320239 32.334496 32.348862 32.363301 32.377778
32.755556 32.726647 32.697813 32.669126 32.640661 32.612486 32.584676 32.557292
32.530408 32.504075 32.478365 32.453320 32.429008 32.405460 32.382739 32.360865
32.339897 32.319839 32.300750 32.282620 32.265503 32.249375 32.234289 32.220206
32.207180 32.195154 32.184184 32.174200 32.165259 32.157274 32.150309 32.144260
32.139197 32.135001 32.131750 32.129307 32.127759 32.126956 32.126992 32.127703
32.129192 32.131281 32.134084 32.137408 32.141377 32.145786 32.150769 32.156111
32.161952 32.168069 32.174612 32.181348 32.188434 32.195635 32.203111 32.210625
32.218343 32.226025 32.233842 32.241557 32.249342 32.256964 32.264595 32.272011
32.279382 32.286492 32.293509 32.300230 32.306815 32.313076 32.319166 32.324911
32.330457 32.335645 32.340611 32.345214 32.349575 32.353572 32.357315 32.360697
32.363814 32.366577 32.369066 32.371210 32.373072 32.374601 32.375840 32.376755
32.377373 32.377678 32.377677 32.377372 32.376753 32.375836 32.374596 32.373067
32.371202 32.369056 32.366565 32.363800 32.360680 32.357294 32.353548 32.349545
32.345178 32.340569 32.335595 32.330397 32.324840 32.319081 32.312976 32.306698
32.300093 32.293348 32.286304 32.279162 32.271756 32.264299 32.256622 32.248947
32.241103 32.233320 32.225427 32.217658 32.209844 32.202222 32.194625 32.187291
32.180055 32.173154 32.166430 32.160113 32.154051 32.148469 32.143223 32.138527
32.134247 32.130587 32.127421 32.124942 32.123033 32.121874 32.121360 32.121654
32.122663 32.124535 32.127187 32.130752 32.135155 32.140516 32.146765 32.154009
32.162184 32.171382 32.181545 32.192748 32.204937 32.218173 32.232404 32.247675
32.263935 32.281214 32.299461 32.318690 32.338849 32.359937 32.381899 32.404722
32.428346 32.452744 32.477853 32.503636 32.530025 32.556972 32.584405 32.612268
32.640488 32.668999 32.697729 32.726606 32.755556
33.133333 33.089978 33.046733 33.003711 32.961019 32.918769 32.877057 32.835997
32.795673 32.756194 32.717632 32.680091 32.643626 32.608336 32.574258 32.541486
32.510037 32.480000 32.451371 32.424235 32.398565 32.374444 32.351823 32.330784
32.311253 32.293315 32.276872 32.262012 32.248615 32.236773 32.226342 32.217424
32.209849 32.203731 32.198877 32.195410 32.193114 32.192128 32.192212 32.193518
32.195784 32.199179 32.203418 32.208685 32.214676 32.221589 32.229104 32.237430
32.246234 32.255736 32.265592 32.276032 32.286704 32.297847 32.309102 32.320718
32.332332 32.344200 32.355960 32.367871 32.379579 32.391341 32.402815 32.414256
32.425335 32.436302 32.446845 32.457210 32.467100 32.476754 32.485898 32.494756
32.503080 32.511080 32.518530 32.525625 32.532167 32.538329 32.543941 32.549155
32.553826 32.558086 32.561816 32.565122 32.567912 32.570268 32.572124 32.573535
32.574461 32.574931 32.574930 32.574459 32.573531 32.572119 32.570261 32.567903
32.565110 32.561802 32.558069 32.553805 32.549130 32.543910 32.538292 32.532122
32.525572 32.518466 32.511003 32.502990 32.494649 32.485771 32.476605 32.466925
32.457004 32.446604 32.436020 32.425006 32.413874 32.402372 32.390829 32.378987
32.367189 32.355177 32.343301 32.331305 32.319546 32.307768 32.296333 32.284988
32.274094 32.263406 32.253277 32.243474 32.234341 32.225654 32.217744 32.210402
32.203944 32.198174 32.193389 32.189409 32.186513 32.184535 32.183733 32.183956
32.185443 32.188055 32.192009 32.197182 32.203766 32.211652 32.221010 32.231740
32.243990 32.257669 32.272902 32.289605 32.307881 32.327649 32.348989 32.371823
32.396208 32.422067 32.449433 32.478227 32.508462 32.540055 32.572995 32.607197
32.642630 32.679202 32.716864 32.755518 32.795099 32.835502 32.876650 32.918432
32.960758 33.003516 33.046606 33.089914 33.133333
33.511111 33.453316 33.395671 33.338320 33.281415 33.225091 33.169499 33.114762
33.061027 33.008398 32.957020 32.906976 32.858402 32.811362 32.765984 32.722303
32.680444 32.640414 32.602330 32.566172 32.532053 32.499921 32.469888 32.441871
32.415982 32.392107 32.370361 32.350599 32.332943 32.317214 32.303545 32.291723
32.281896 32.273819 32.267653 32.263122 32.260403 32.259191 32.259680 32.261535
32.264970 32.269620 32.275719 32.282875 32.291341 32.300700 32.311225 32.322475
32.334742 32.347566 32.361253 32.375330 32.390118 32.405132 32.420704 32.436347
32.452398 32.468371 32.484611 32.500636 32.516793 32.532611 32.548437 32.563816
32.579092 32.593828 32.608361 32.622280 32.635911 32.648870 32.661469 32.673355
32.684822 32.695551 32.705814 32.715326 32.724336 32.732594 32.740322 32.747307
32.753740 32.759444 32.764580 32.769006 32.772849 32.776002 32.778558 32.780446
32.781721 32.782350 32.782349 32.781719 32.780441 32.778551 32.775993 32.772837
32.768991 32.764562 32.759422 32.753712 32.747273 32.740281 32.732544 32.724276
32.715254 32.705729 32.695449 32.684702 32.673212 32.661300 32.648671 32.635676
32.622005 32.608039 32.593452 32.578653 32.563307 32.547846 32.531927 32.516003
32.499727 32.483567 32.467174 32.451029 32.434784 32.418926 32.403113 32.387830
32.372745 32.358338 32.344287 32.331062 32.318356 32.306624 32.295574 32.285642
32.276555 32.268726 32.261901 32.256470 32.252196 32.249444 32.247998 32.248193
32.249833 32.253224 32.258190 32.265006 32.273514 32.283958 32.296196 32.310443
32.326569 32.344757 32.364889 32.387118 32.411333 32.437656 32.465980 32.496398
32.528804 32.563259 32.599658 32.638032 32.678273 32.720381 32.764243 32.809833
32.857030 32.905782 32.955960 33.007489 33.060234 33.114098 33.168937 33.224639
33.281055 33.338058 33.395496 33.453230 33.511111
33.888889 33.816667 33.744629 33.672966 33.601853 33.531480 33.462008 33.393626
33.326476 33.260741 33.196539 33.134047 33.073356 33.014634 32.957941 32.903438
32.851152 32.801233 32.753675 32.708622 32.666029 32.626038 32.588565 32.553752
32.521473 32.491874 32.464791 32.440375 32.418421 32.399092 32.382140 32.367744
32.355616 32.345951 32.338421 32.333241 32.330043 32.329065 32.329899 32.332808
32.337346 32.343800 32.351689 32.361324 32.372190 32.384623 32.398079 32.412914
32.428559 32.445391 32.462821 32.481244 32.500053 32.519661 32.539451 32.559847
32.580232 32.601037 32.621647 32.642501 32.662994 32.683566 32.703629 32.723619
32.742973 32.762119 32.780522 32.798601 32.815852 32.832679 32.848616 32.864046
32.878543 32.892468 32.905436 32.917780 32.929159 32.939874 32.949630 32.958691
32.966809 32.974208 32.980687 32.986427 32.991273 32.995362 32.998585 33.001033
33.002642 33.003456 33.003455 33.002638 33.001028 32.998576 32.995351 32.991258
32.986408 32.980663 32.974180 32.966774 32.958649 32.949579 32.939812 32.929085
32.917691 32.905330 32.892341 32.878393 32.863868 32.848405 32.832430 32.815559
32.798258 32.780120 32.761649 32.742425 32.722982 32.702890 32.682711 32.662007
32.641365 32.620341 32.599540 32.578520 32.557895 32.537228 32.517137 32.497194
32.478012 32.459177 32.441293 32.423960 32.407765 32.392328 32.378215 32.365067
32.353424 32.342948 32.334152 32.326721 32.321134 32.317104 32.315074 32.314780
32.316630 32.320385 32.326414 32.334503 32.344982 32.357657 32.372820 32.390296
32.410338 32.432786 32.457853 32.485394 32.515580 32.548276 32.583613 32.621460
32.661912 32.704836 32.750290 32.798138 32.848401 32.900940 32.955737 33.012646
33.071618 33.132495 33.195197 33.259559 33.325473 33.392763 33.461297 33.530893
33.601398 33.672626 33.744408 33.816555 33.888889
34.266667 34.180030 34.093619 34.007651 33.922356 33.837936 33.754621 33.672592
33.592075 33.513225 33.436262 33.361311 33.288580 33.218161 33.150252 33.084906
33.022313 32.962482 32.905595 32.851619 32.800730 32.752847 32.708146 32.666498
32.628079 32.592714 32.560585 32.531467 32.505554 32.482571 32.462727 32.445697
32.431711 32.420394 32.411998 32.406099 32.402977 32.402158 32.403950 32.407833
32.414142 32.422315 32.432715 32.444737 32.458776 32.474185 32.491387 32.509703
32.529582 32.550313 32.572371 32.595022 32.618761 32.642839 32.667766 32.692788
32.718427 32.743928 32.769823 32.795365 32.821091 32.846271 32.871439 32.895891
32.920156 32.943560 32.966623 32.988709 33.010319 33.030863 33.050820 33.069647
33.087796 33.104775 33.121006 33.136049 33.150288 33.163339 33.175544 33.186575
33.196729 33.205733 33.213836 33.220818 33.226878 33.231851 33.235881 33.238858
33.240868 33.241859 33.241857 33.240864 33.238851 33.235870 33.231837 33.226860
33.220796 33.213808 33.205699 33.196687 33.186524 33.175482 33.163264 33.150199
33.135942 33.120879 33.104623 33.087615 33.069432 33.050567 33.030564 33.009968
32.988296 32.966140 32.942996 32.919498 32.895126 32.870552 32.845245 32.819907
32.794002 32.768256 32.742132 32.716373 32.690445 32.665099 32.639810 32.615330
32.591145 32.567999 32.545395 32.524063 32.503525 32.484486 32.466495 32.450227
32.435257 32.422226 32.410736 32.401392 32.393824 32.388596 32.385369 32.384662
32.386166 32.390355 32.396950 32.406376 32.418383 32.433348 32.451045 32.471805
32.495422 32.522179 32.551889 32.584784 32.620692 32.659799 32.701938 32.747248
32.795568 32.846990 32.901351 32.958699 33.018865 33.081853 33.147489 33.215733
33.286401 33.359415 33.434580 33.511783 33.590817 33.671537 33.753729 33.837219
33.921786 34.007236 34.093341 34.179894 34.266667
34.644444 34.543412 34.442640 34.342395 34.242924 34.144495 34.047335 33.951711
33.857820 33.765924 33.676187 33.588862 33.504075 33.422065 33.342918 33.266862
33.193935 33.124354 33.058106 32.995404 32.936180 32.880642 32.828667 32.780465
32.735856 32.695055 32.657825 32.624390 32.594455 32.568262 32.545456 32.526300
32.510380 32.497985 32.488641 32.482667 32.479531 32.479584 32.482237 32.487875
32.495853 32.506593 32.519396 32.534717 32.551812 32.571167 32.591993 32.614811
32.638792 32.664485 32.691032 32.719007 32.747528 32.777191 32.807102 32.837873
32.868604 32.899922 32.930932 32.962267 32.993050 33.023914 33.054006 33.083957
33.112948 33.141600 33.169135 33.196159 33.221942 33.247068 33.270861 33.293878
33.315502 33.336254 33.355579 33.373958 33.390901 33.406841 33.421356 33.434827
33.446896 33.457889 33.467515 33.476038 33.483235 33.489305 33.494089 33.497722
33.500109 33.501318 33.501316 33.500105 33.497714 33.494077 33.489289 33.483214
33.476012 33.467482 33.457849 33.446847 33.434767 33.421284 33.406755 33.390796
33.373833 33.355430 33.336076 33.315291 33.293629 33.270566 33.246719 33.221532
33.195678 33.168572 33.140942 33.112181 33.083066 33.052971 33.022717 32.991668
32.960676 32.929104 32.897826 32.866208 32.835139 32.803990 32.773658 32.743525
32.714483 32.685931 32.658747 32.632353 32.607602 32.583942 32.562195 32.541838
32.523657 32.507158 32.493084 32.480978 32.471531 32.464324 32.459996 32.458163
32.459411 32.463391 32.470633 32.480823 32.494433 32.511181 32.531482 32.555081
32.582338 32.613018 32.647426 32.685347 32.727027 32.772263 32.821248 32.873786
32.930012 32.989735 33.053037 33.119721 33.189817 33.263123 33.339619 33.419091
33.501473 33.586540 33.674180 33.764157 33.856319 33.950419 34.046271 34.143617
34.242243 34.341886 34.442309 34.543246 34.644444
35.022222 34.906813 34.791707 34.677194 34.563586 34.451151 34.340200 34.230975
34.123781 34.018827 33.916407 33.816690 33.719960 33.626337 33.536093 33.449298
33.366210 33.286844 33.211448 33.139977 33.072674 33.009431 32.950490 32.895678
32.845242 32.798940 32.757032 32.719209 32.685745 32.656263 32.631060 32.609690
32.592479 32.578910 32.569341 32.563188 32.560844 32.561658 32.566061 32.573335
32.583953 32.597133 32.613386 32.631872 32.653142 32.676300 32.701936 32.729103
32.758427 32.788921 32.821241 32.854369 32.888988 32.924058 32.960283 32.996615
33.033773 33.070710 33.108158 33.145080 33.182216 33.218551 33.254823 33.290055
33.324976 33.358652 33.391799 33.423536 33.454558 33.484043 33.512658 33.539648
33.565642 33.589958 33.613179 33.634699 33.655052 33.673704 33.691135 33.706887
33.721377 33.734225 33.745779 33.755737 33.764372 33.771462 33.777202 33.781444
33.784308 33.785719 33.785717 33.784303 33.781435 33.777188 33.771443 33.764349
33.755707 33.745741 33.734179 33.721321 33.706819 33.691052 33.673605 33.654933
33.634557 33.613009 33.589755 33.565401 33.539362 33.512320 33.483645 33.454089
33.422986 33.391155 33.357900 33.324099 33.289036 33.253641 33.217183 33.180637
33.143262 33.106069 33.068315 33.031035 32.993490 32.956727 32.920019 32.884413
32.849199 32.815412 32.782364 32.751068 32.720865 32.692734 32.666048 32.641745
32.619231 32.599400 32.581694 32.566952 32.554657 32.545589 32.539272 32.536424
32.536610 32.540484 32.547651 32.558699 32.573271 32.591888 32.614229 32.640746
32.671149 32.705825 32.744508 32.787517 32.834606 32.886030 32.941554 33.001368
33.065246 33.133312 33.205341 33.281398 33.361250 33.444904 33.532119 33.622844
33.716826 33.813963 33.913988 34.016752 34.121973 34.229459 34.338917 34.450120
34.562766 34.676597 34.791307 34.906617 35.022222
35.400000 35.270239 35.140815 35.012075 34.884335 34.757948 34.633203 34.510450
34.389943 34.272023 34.156904 34.044913 33.936216 33.831128 33.729757 33.632405
33.539119 33.450191 33.365601 33.285634 33.210199 33.139578 33.073609 33.012575
32.956240 32.904896 32.858231 32.816553 32.779470 32.747315 32.719617 32.696738
32.678127 32.664182 32.654271 32.648831 32.647154 32.649717 32.655735 32.665732
32.678844 32.695642 32.715192 32.738109 32.763393 32.791700 32.821972 32.854906
32.889389 32.926159 32.964058 33.003858 33.044370 33.086392 33.128718 33.172167
33.215527 33.259634 33.303284 33.347322 33.390564 33.433859 33.476058 33.518004
33.558595 33.598661 33.637156 33.674892 33.710889 33.745928 33.779104 33.811161
33.841274 33.870141 33.897022 33.922559 33.946100 33.968227 33.988374 34.007054
34.023791 34.039023 34.052362 34.064164 34.074130 34.082531 34.089153 34.094180
34.097483 34.099155 34.099153 34.097477 34.094169 34.089138 34.082510 34.074103
34.064131 34.052320 34.038972 34.023728 34.006978 33.988281 33.968115 33.945966
33.922399 33.896830 33.869913 33.841003 33.810840 33.778724 33.745480 33.710362
33.674274 33.636432 33.597815 33.557609 33.516858 33.474728 33.432320 33.388788
33.345276 33.300933 33.256940 33.212446 33.168652 33.124717 33.081849 33.039223
32.998041 32.957500 32.918782 32.881111 32.845638 32.811620 32.780166 32.750570
32.723889 32.699458 32.678274 32.659718 32.644719 32.632704 32.624534 32.619681
32.618932 32.621807 32.629016 32.640125 32.655767 32.675549 32.700027 32.728847
32.762487 32.800624 32.843661 32.891300 32.943871 33.001092 33.063218 33.129982
33.201564 33.277702 33.358505 33.443710 33.533357 33.627175 33.725140 33.826970
33.932577 34.041667 34.154096 34.269553 34.387844 34.508645 34.631716 34.756721
34.883384 35.011363 35.140352 35.270006 35.400000
35.777778 35.633690 35.489985 35.347028 35.205211 35.064873 34.926407 34.790118
34.656392 34.525491 34.397792 34.273505 34.152993 34.036407 33.924098 33.816149
33.712899 33.614361 33.520862 33.432340 33.349117 33.271050 33.198463 33.131130
33.069383 33.012909 32.962056 32.916424 32.876384 32.841447 32.812013 32.787504
32.768358 32.753905 32.744625 32.739757 32.739829 32.743990 32.752818 32.765374
32.782285 32.802529 32.826785 32.853950 32.884752 32.918015 32.954514 32.993010
33.034319 33.077147 33.122351 33.168593 33.216764 33.265497 33.315710 33.366023
33.417375 33.468385 33.520009 33.570883 33.621969 33.671935 33.721742 33.770105
33.817975 33.864127 33.909494 33.952922 33.995317 34.035605 34.074655 34.111482
34.146907 34.180041 34.211648 34.240936 34.268603 34.293959 34.317628 34.339020
34.358676 34.376107 34.391768 34.405267 34.416965 34.426569 34.434341 34.440086
34.443962 34.445873 34.445871 34.443955 34.440074 34.434324 34.426546 34.416935
34.405230 34.391721 34.376050 34.358606 34.338935 34.317526 34.293835 34.268455
34.240757 34.211435 34.179787 34.146606 34.111125 34.074233 34.035107 33.994731
33.952235 33.908689 33.863187 33.816879 33.768831 33.720265 33.670226 33.619996
33.568610 33.517398 33.465391 33.413951 33.362117 33.311265 33.260449 33.211046
33.162130 33.115064 33.068950 33.025121 32.982712 32.943013 32.905199 32.870504
32.838149 32.809302 32.783231 32.761034 32.742026 32.727228 32.716009 32.709304
32.706535 32.708553 32.714832 32.726134 32.741981 32.763049 32.788905 32.820137
32.856351 32.898049 32.944870 32.997229 33.054793 33.117891 33.186208 33.259989
33.338932 33.423200 33.512492 33.606895 33.706103 33.810127 33.918653 34.031620
34.148701 34.269768 34.394480 34.522649 34.653916 34.788041 34.924652 35.063462
35.204089 35.346210 35.489438 35.633422 35.777778
36.155556 35.997175 35.839209 35.682087 35.526200 35.371982 35.219791 35.070059
34.923101 34.779340 34.639039 34.502609 34.370250 34.242361 34.119071 34.000766
33.887499 33.779645 33.677175 33.580455 33.489370 33.404287 33.324998 33.251876
33.184620 33.123617 33.068467 33.019583 32.976464 32.939554 32.908251 32.883037
32.863210 32.849295 32.840488 32.837363 32.839015 32.846073 32.857529 32.874069
32.894586 32.919824 32.948580 32.981655 33.017760 33.057745 33.100245 33.146160
33.194054 33.244874 33.297128 33.351802 33.407363 33.464832 33.522650 33.581865
33.640911 33.700855 33.760142 33.819851 33.878455 33.937037 33.994115 34.050766
34.105570 34.159589 34.211476 34.262270 34.310711 34.357802 34.402379 34.445397
34.485799 34.524481 34.560495 34.594669 34.626167 34.655740 34.682664 34.707602
34.729945 34.750259 34.768049 34.783776 34.797058 34.808245 34.817065 34.823756
34.828155 34.830380 34.830377 34.828147 34.823743 34.817047 34.808220 34.797025
34.783735 34.767998 34.750196 34.729868 34.707508 34.682551 34.655603 34.626004
34.594473 34.560261 34.524202 34.485467 34.445004 34.401915 34.357254 34.310067
34.261514 34.210591 34.158555 34.104365 34.049365 33.992490 33.935157 33.876284
33.817351 33.757269 33.697562 33.637145 33.577569 33.517760 33.459280 33.401073
33.344693 33.289112 33.235858 33.183936 33.134832 33.087593 33.043648 33.002088
32.964274 32.929350 32.898596 32.871210 32.848387 32.829380 32.815293 32.805437
32.800820 32.800809 32.806315 32.816763 32.832962 32.854391 32.881758 32.914593
32.953504 32.998060 33.048775 33.105252 33.167908 33.236371 33.310963 33.391334
33.477711 33.569751 33.667596 33.770901 33.879723 33.993713 34.112843 34.236754
34.365342 34.498233 34.635253 34.776012 34.920272 35.067627 35.217785 35.370328
35.524918 35.681128 35.838585 35.996861 36.155556
36.533333 36.360690 36.188510 36.017238 35.847349 35.679253 35.513429 35.350245
35.190175 35.033534 34.880784 34.732180 34.588169 34.448933 34.314907 34.186191
34.063209 33.945973 33.834898 33.729902 33.631399 33.539208 33.453746 33.374731
33.302593 33.236941 33.178231 33.125961 33.080616 33.041586 33.009393 32.983313
32.963918 32.950367 32.943285 32.941716 32.946344 32.956098 32.971722 32.992032
33.017836 33.047840 33.082912 33.121658 33.165004 33.211460 33.262010 33.315078
33.371702 33.430233 33.491755 33.554565 33.619787 33.685680 33.753400 33.821188
33.890227 33.958759 34.027984 34.096166 34.164515 34.231336 34.297839 34.362390
34.426187 34.487675 34.548030 34.605788 34.662092 34.715585 34.767362 34.816180
34.863078 34.906932 34.948712 34.987419 35.023940 35.057405 35.088607 35.116805
35.142687 35.165640 35.186240 35.203999 35.219373 35.232000 35.242208 35.249758
35.254848 35.257358 35.257355 35.254840 35.249744 35.242188 35.231973 35.219338
35.203954 35.186184 35.165571 35.142603 35.116703 35.088484 35.057257 35.023761
34.987205 34.948456 34.906628 34.862716 34.815752 34.766856 34.714988 34.661390
34.604963 34.547064 34.486547 34.424873 34.360862 34.296067 34.229285 34.162147
34.093439 34.024850 33.955167 33.886119 33.816501 33.748066 33.679622 33.612925
33.546810 33.483011 33.420397 33.360664 33.302721 33.248208 33.196080 33.147907
33.102697 33.061934 33.024682 32.992335 32.964015 32.941014 32.922520 32.909714
32.901850 32.900000 32.903480 32.913249 32.928686 32.950637 32.978537 33.013121
33.053875 33.101425 33.155298 33.216012 33.283131 33.357065 33.437404 33.524454
33.617823 33.717715 33.823744 33.936020 34.054155 34.178166 34.307655 34.442555
34.582454 34.727203 34.876376 35.029749 35.186881 35.347480 35.511093 35.677374
35.845856 36.016149 36.187783 36.360333 36.533333
36.911111 36.724248 36.537880 36.352521 36.168639 35.986753 35.807291 35.630774
35.457573 35.288205 35.122977 34.962393 34.806688 34.656350 34.511532 34.372710
34.239943 34.113699 33.993936 33.881118 33.775098 33.676344 33.584597 33.500336
33.423187 33.353651 33.291234 33.236468 33.188737 33.148613 33.115355 33.089582
33.070427 33.058567 33.053004 33.054478 33.061860 33.075957 33.095514 33.121402
33.152243 33.188976 33.230101 33.276625 33.326936 33.382103 33.440411 33.502989
33.568034 33.636727 33.707193 33.780661 33.855201 33.932083 34.009344 34.088286
34.166938 34.246625 34.325389 34.404569 34.482245 34.559761 34.635256 34.710066
34.782411 34.853610 34.921978 34.988804 35.052516 35.114360 35.172888 35.229288
35.282244 35.332876 35.380005 35.424667 35.465824 35.504415 35.539547 35.572046
35.601164 35.627607 35.650766 35.671218 35.688493 35.703030 35.714495 35.723185
35.728900 35.731789 35.731787 35.728891 35.723170 35.714473 35.703000 35.688454
35.671170 35.650706 35.627533 35.601073 35.571936 35.539413 35.504254 35.465631
35.424435 35.379729 35.332547 35.281853 35.228824 35.172339 35.113714 35.051755
34.987911 34.920932 34.852388 34.780987 34.708411 34.633335 34.557539 34.479680
34.401614 34.321994 34.242733 34.162488 34.083209 34.003565 33.925520 33.847767
33.772259 33.697721 33.626072 33.556076 33.489602 33.425459 33.365442 33.308415
33.256084 33.207374 33.163889 33.124616 33.091051 33.062247 33.039582 33.022178
33.011290 33.006113 33.007774 33.015536 33.030403 33.051702 33.080311 33.115618
33.158377 33.208029 33.265206 33.329394 33.401105 33.479862 33.566060 33.659246
33.759704 33.866994 33.981293 34.102165 34.229683 34.363410 34.503317 34.648959
34.800216 34.956626 35.117986 35.283819 35.453845 35.627570 35.804648 35.984576
36.166950 36.351259 36.537057 36.723834 36.911111
37.288889 37.087843 36.887345 36.687918 36.490127 36.294454 36.101468 35.911602
35.725422 35.543298 35.365786 35.193180 35.026024 34.864529 34.709224 34.560224
34.418049 34.282709 34.154718 34.033974 33.920994 33.815555 33.718187 33.628542
33.547169 33.473592 33.408390 33.350954 33.301905 33.260495 33.227397 33.201723
33.184203 33.173808 33.171333 33.175606 33.187492 33.205674 33.231091 33.262284
33.300266 33.343439 33.392890 33.446889 33.506593 33.570151 33.638786 33.710537
33.786689 33.865190 33.947377 34.031129 34.117828 34.205305 34.294980 34.384661
34.475799 34.566203 34.657346 34.747066 34.836845 34.924578 35.011746 35.096321
35.179774 35.260177 35.338974 35.414355 35.487726 35.557410 35.624758 35.688238
35.749130 35.806056 35.860210 35.910371 35.957633 36.000933 36.041252 36.077684
36.111084 36.140703 36.167255 36.190148 36.209947 36.226210 36.239348 36.249066
36.255614 36.258844 36.258841 36.255604 36.249050 36.239324 36.226178 36.209906
36.190096 36.167190 36.140623 36.110986 36.077565 36.041108 36.000760 35.957425
35.910122 35.859912 35.805701 35.748709 35.687738 35.624167 35.556714 35.486906
35.413393 35.337847 35.258861 35.178241 35.094539 35.009678 34.922185 34.834082
34.743884 34.653690 34.562012 34.471006 34.379193 34.288756 34.198238 34.109822
34.022081 33.937176 33.853715 33.773812 33.696121 33.622683 33.552209 33.486647
33.424768 33.368415 33.316423 33.270515 33.229598 33.195266 33.166500 33.144757
33.129096 33.120835 33.119107 33.125090 33.137992 33.158849 33.186940 33.223162
33.266857 33.318786 33.378345 33.446163 33.521681 33.605399 33.696793 33.796235
33.903227 34.018020 34.140127 34.269685 34.406209 34.549725 34.699744 34.856188
35.018556 35.186674 35.360026 35.538352 35.721119 35.907990 36.098418 36.291998
36.488178 36.686495 36.886396 37.087377 37.288889
37.666667 37.451490 37.236892 37.023476 36.811785 36.602433 36.395916 36.192849
35.993665 35.798975 35.609136 35.424750 35.246088 35.073739 34.907874 34.749073
34.597400 34.453426 34.317099 34.188991 34.068922 33.957475 33.854338 33.760112
33.674347 33.597674 33.529500 33.470496 33.419921 33.378499 33.345333 33.321211
33.305079 33.297794 33.298143 33.307057 33.323163 33.347472 33.378451 33.417188
33.461996 33.514042 33.571486 33.635573 33.704322 33.779048 33.857642 33.941488
34.028361 34.119706 34.213210 34.310368 34.408799 34.510045 34.611684 34.715294
34.818444 34.922736 35.025759 35.129133 35.230493 35.331466 35.429764 35.527007
35.621007 35.713366 35.802019 35.888534 35.970988 36.050897 36.126494 36.199231
36.267504 36.332680 36.393330 36.450720 36.503595 36.553102 36.598164 36.639794
36.677089 36.710916 36.740542 36.766676 36.788752 36.807312 36.821953 36.833042
36.840337 36.844023 36.844019 36.840327 36.833024 36.821928 36.807278 36.788708
36.766620 36.740472 36.710830 36.676984 36.639667 36.598009 36.552917 36.503372
36.450453 36.393011 36.332300 36.267052 36.198695 36.125862 36.050151 35.970110
35.887504 35.800813 35.711956 35.619364 35.525097 35.427548 35.328902 35.227533
35.125724 35.021842 34.918246 34.813309 34.709436 34.605016 34.502473 34.400221
34.300674 34.202280 34.107412 34.014564 33.926041 33.840390 33.759824 33.682951
33.611872 33.545263 33.485096 33.430120 33.382168 33.340067 33.305500 33.277377
33.257225 33.244038 33.239186 33.241744 33.252928 33.271890 33.299691 33.335556
33.380394 33.433498 33.495627 33.566130 33.645622 33.733499 33.830235 33.935259
34.048913 34.170646 34.300672 34.438452 34.584074 34.737002 34.897208 35.064149
35.237688 35.417271 35.602661 35.793288 35.988828 36.188695 36.392488 36.599611
36.809595 37.021840 37.235826 37.450954 37.666667
38.044444 37.815181 37.586555 37.359170 37.133683 36.910653 36.690744 36.474455
36.262451 36.055158 35.853231 35.657010 35.467141 35.283863 35.107813 34.939118
34.778409 34.625689 34.481590 34.345983 34.219508 34.101896 33.993806 33.894821
33.805628 33.725659 33.655641 33.594847 33.544056 33.502374 33.470647 33.447808
33.434777 33.430312 33.435411 33.448658 33.471132 33.501241 33.540148 33.586086
33.640303 33.700860 33.769089 33.842884 33.923660 34.009158 34.100864 34.196387
34.297278 34.401030 34.509257 34.619361 34.733007 34.847537 34.964659 35.081688
35.200364 35.318007 35.436380 35.552842 35.669170 35.782792 35.895486 36.004781
36.112443 36.216126 36.317569 36.414575 36.508839 36.598331 36.684682 36.766043
36.843962 36.916780 36.985946 37.049990 37.110244 37.165431 37.216746 37.263107