# vtk DataFile Version 3.0
Steady-state temperature (Jacobi)
ASCII
DATASET STRUCTURED_POINTS
DIMENSIONS 181 181 1
ORIGIN 0.0 0.0 0.0
SPACING 0.05 0.05 1.0
POINT_DATA 32761
SCALARS Temperature float 1
LOOKUP_TABLE default
32.000000 32.000000 32.000000 32.000000 32.000000 32.000000 32.000000 32.000000
32.000000 32.000000 32.000000 32.000000 32.000000 32.000000 32.000000 32.000000
32.000000 32.000000 32.000000 32.000000 32.000000 32.000000 32.000000 32.000000
32.000000 32.000000 32.000000 32.000000 32.000000 32.000000 32.000000 32.000000
32.000000 32.000000 32.000000 32.000000 32.000000 32.000000 32.000000 32.000000
32.000000 32.000000 32.000000 32.000000 32.000000 32.000000 32.000000 32.000000
32.000000 32.000000 32.000000 32.000000 32.000000 32.000000 32.000000 32.000000
32.000000 32.000000 32.000000 32.000000 32.000000 32.000000 32.000000 32.000000
32.000000 32.000000 32.000000 32.000000 32.000000 32.000000 32.000000 32.000000
32.000000 32.000000 32.000000 32.000000 32.000000 32.000000 32.000000 32.000000
32.000000 32.000000 32.000000 32.000000 32.000000 32.000000 32.000000 32.000000
32.000000 32.000000 32.000000 32.000000 32.000000 32.000000 32.000000 32.000000
32.000000 32.000000 32.000000 32.000000 32.000000 32.000000 32.000000 32.000000
32.000000 32.000000 32.000000 32.000000 32.000000 32.000000 32.000000 32.000000
32.000000 32.000000 32.000000 32.000000 32.000000 32.000000 32.000000 32.000000
32.000000 32.000000 32.000000 32.000000 32.000000 32.000000 32.000000 32.000000
32.000000 32.000000 32.000000 32.000000 32.000000 32.000000 32.000000 32.000000
32.000000 32.000000 32.000000 32.000000 32.000000 32.000000 32.000000 32.000000
32.000000 32.000000 32.000000 32.000000 32.000000 32.000000 32.000000 32.000000
32.000000 32.000000 32.000000 32.000000 32.000000 32.000000 32.000000 32.000000
32.000000 32.000000 32.000000 32.000000 32.000000 32.000000 32.000000 32.000000
32.000000 32.000000 32.000000 32.000000 32.000000 32.000000 32.000000 32.000000
32.000000 32.000000 32.000000 32.000000 32.000000
32.377778 32.409140 32.440505 32.471877 32.503258 32.534652 32.566061 32.597487
32.628935 32.660405 32.691899 32.723420 32.754968 32.786545 32.818150 32.849785
32.881448 32.913139 32.944855 32.976597 33.008359 33.040140 33.071935 33.103740
33.135549 33.167357 33.199156 33.230940 33.262698 33.294425 33.326106 33.357735
33.389297 33.420782 33.452175 33.483465 33.514633 33.545667 33.576549 33.607264
33.637791 33.668116 33.698217 33.728076 33.757673 33.786988 33.816000 33.844688
33.873031 33.901008 33.928597 33.955778 33.982527 34.008826 34.034651 34.059983
34.084801 34.109086 34.132816 34.155976 34.178544 34.200505 34.221841 34.242536
34.262574 34.281942 34.300624 34.318609 34.335883 34.352437 34.368259 34.383341
34.397672 34.411245 34.424053 34.436090 34.447349 34.457826 34.467514 34.476412
34.484514 34.491818 34.498322 34.504023 34.508919 34.513009 34.516291 34.518766
34.520431 34.521287 34.521334 34.520571 34.519000 34.516620 34.513433 34.509440
34.504641 34.499040 34.492637 34.485436 34.477439 34.468649 34.459071 34.448708
34.437566 34.425649 34.412965 34.399519 34.385320 34.370374 34.354693 34.338284
34.321159 34.303330 34.284808 34.265606 34.245740 34.225223 34.204071 34.182300
34.159929 34.136972 34.113451 34.089384 34.064790 34.039689 34.014103 33.988051
33.961556 33.934638 33.907320 33.879621 33.851565 33.823171 33.794464 33.765461
33.736185 33.706656 33.676894 33.646918 33.616748 33.586400 33.555894 33.525245
33.494472 33.463587 33.432608 33.401547 33.370418 33.339233 33.308004 33.276741
33.245455 33.214153 33.182847 33.151541 33.120244 33.088960 33.057696 33.026455
32.995243 32.964061 32.932913 32.901800 32.870724 32.839685 32.808684 32.777720
32.746793 32.715902 32.685044 32.654219 32.623423 32.592655 32.561911 32.531189
32.500484 32.469795 32.439116 32.408445 32.377778
32.755556 32.818281 32.881013 32.943758 33.006521 33.069310 33.132129 33.194984
33.257881 33.320823 33.383814 33.446858 33.509958 33.573114 33.636330 33.699602
33.762934 33.826320 33.889760 33.953248 34.016781 34.080349 34.143948 34.207565
34.271194 34.334818 34.398428 34.462004 34.525535 34.588998 34.652376 34.715646
34.778787 34.841770 34.904574 34.967167 35.029523 35.091608 35.153392 35.214838
35.275915 35.336582 35.396806 35.456544 35.515761 35.574411 35.632458 35.689855
35.746564 35.802539 35.857740 35.912122 35.965644 36.018260 36.069933 36.120616
36.170273 36.218861 36.266343 36.312679 36.357835 36.401772 36.444461 36.485865
36.525957 36.564704 36.602082 36.638063 36.672624 36.705741 36.737396 36.767566
36.796237 36.823390 36.849014 36.873092 36.895616 36.916572 36.935954 36.953752
36.969960 36.984571 36.997581 37.008984 37.018777 37.026958 37.033524 37.038473
37.041804 37.043517 37.043610 37.042085 37.038941 37.034181 37.027806 37.019818
37.010220 36.999015 36.986207 36.971803 36.955805 36.938223 36.919062 36.898333
36.876042 36.852204 36.826828 36.799930 36.771522 36.741623 36.710250 36.677423
36.643162 36.607492 36.570434 36.532019 36.492271 36.451222 36.408901 36.365344
36.320581 36.274652 36.227590 36.179436 36.130227 36.080007 36.028812 35.976689
35.923675 35.869819 35.815158 35.759740 35.703604 35.646797 35.589358 35.531333
35.472759 35.413681 35.354136 35.294165 35.233803 35.173090 35.112058 35.050744
34.989178 34.927394 34.865418 34.803283 34.741009 34.678626 34.616153 34.553616
34.491031 34.428419 34.365794 34.303174 34.240569 34.177994 34.115457 34.052970
33.990538 33.928169 33.865866 33.803636 33.741479 33.679398 33.617391 33.555461
33.493603 33.431818 33.370101 33.308448 33.246855 33.185317 33.123828 33.062382
33.000972 32.939592 32.878234 32.816891 32.755556
33.133333 33.227424 33.321525 33.415645 33.509794 33.603980 33.698213 33.792501
33.886850 33.981269 34.075761 34.170335 34.264991 34.359736 34.454567 34.549488
34.644495 34.739589 34.834761 34.930010 35.025324 35.120696 35.216112 35.311562
35.407025 35.502488 35.597926 35.693321 35.788644 35.883872 35.978969 36.073911
36.168656 36.263172 36.357415 36.451349 36.544923 36.638097 36.730817 36.823037
36.914698 37.005752 37.096137 37.185799 37.274674 37.362706 37.449827 37.535981
37.621097 37.705117 37.787971 37.869600 37.949934 38.028915 38.106474 38.182553
38.257087 38.330020 38.401288 38.470840 38.538615 38.604566 38.668637 38.730783
38.790955 38.849112 38.905209 38.959211 39.011079 39.060782 39.108285 39.153563
39.196588 39.237337 39.275786 39.311919 39.345716 39.377163 39.406244 39.432951
39.457269 39.479192 39.498711 39.515821 39.530514 39.542789 39.552639 39.560065
39.565062 39.567631 39.567771 39.565482 39.560766 39.553624 39.544059 39.532073
39.517673 39.500861 39.481645 39.460030 39.436028 39.409644 39.380894 39.349787
39.316341 39.280567 39.242489 39.202122 39.159493 39.114622 39.067539 39.018272
38.966854 38.913317 38.857701 38.800042 38.740386 38.678772 38.615253 38.549872
38.482686 38.413744 38.343106 38.270824 38.196963 38.121578 38.044736 37.966495
37.886924 37.806081 37.724038 37.640853 37.556597 37.471329 37.385119 37.298025
37.210114 37.121441 37.032075 36.942065 36.851476 36.760356 36.668765 36.576747
36.484357 36.391637 36.298637 36.205392 36.111948 36.018336 35.924597 35.830758
35.736853 35.642905 35.548944 35.454987 35.361059 35.267174 35.173352 35.079601
34.985938 34.892368 34.798902 34.705542 34.612296 34.519163 34.426145 34.333240
34.240448 34.147763 34.055182 33.962697 33.870304 33.777992 33.685756 33.593583
33.501466 33.409393 33.317354 33.225338 33.133333
33.511111 33.636571 33.762044 33.887543 34.013081 34.138669 34.264320 34.390044
34.515853 34.641754 34.767757 34.893866 35.020091 35.146430 35.272892 35.399471
35.526171 35.652984 35.779909 35.906933 36.034052 36.161246 36.288506 36.415809
36.543138 36.670464 36.797766 36.925008 37.052163 37.179188 37.306051 37.432700
37.559098 37.685187 37.810923 37.936241 38.061091 38.185403 38.309119 38.432164
38.554475 38.675970 38.796583 38.916227 39.034830 39.152302 39.268570 39.383540
39.497134 39.609260 39.719839 39.828776 39.935993 40.041397 40.144910 40.246442
40.345918 40.443249 40.538365 40.631183 40.721636 40.809646 40.895152 40.978082
41.058381 41.135984 41.210843 41.282899 41.352109 41.418425 41.481808 41.542217
41.599621 41.653984 41.705281 41.753483 41.798570 41.840518 41.879313 41.914935
41.947374 41.976615 42.002651 42.025471 42.045070 42.061440 42.074579 42.084481
42.091147 42.094572 42.094759 42.091706 42.085415 42.075890 42.063131 42.047146
42.027937 42.005513 41.979880 41.951051 41.919032 41.883840 41.845487 41.803992
41.759370 41.711648 41.660845 41.606992 41.550113 41.490248 41.427425 41.361690
41.293078 41.221643 41.147426 41.070486 40.990874 40.908654 40.823883 40.736633
40.646966 40.554961 40.460684 40.364220 40.265641 40.165035 40.062477 39.958060
39.851860 39.743971 39.634474 39.523462 39.411014 39.297225 39.182172 39.065949
38.948631 38.830308 38.711052 38.590950 38.470068 38.348490 38.226278 38.103508
37.980238 37.856538 37.732458 37.608064 37.483401 37.358525 37.233474 37.108301
36.983036 36.857725 36.732391 36.607073 36.481791 36.356575 36.231439 36.106408
35.981490 35.856705 35.732055 35.607555 35.483203 35.359008 35.234966 35.111079
34.987341 34.863750 34.740297 34.616976 34.493776 34.370688 34.247698 34.124797
34.001969 33.879202 33.756479 33.633788 33.511111
33.888889 34.045722 34.202571 34.359454 34.516385 34.673382 34.830456 34.987626
35.144900 35.302293 35.459813 35.617472 35.775273 35.933225 36.091327 36.249585
36.407992 36.566549 36.725244 36.884073 37.043017 37.202068 37.361198 37.520392
37.679618 37.838852 37.998053 38.157193 38.316220 38.475099 38.633771 38.792191
38.950292 39.108023 39.265307 39.422085 39.578272 39.733802 39.888581 40.042535
40.195566 40.347591 40.498506 40.648223 40.796632 40.943640 41.089133 41.233015
41.375170 41.515498 41.653881 41.790222 41.924401 42.056321 42.185867 42.312941
42.437432 42.559248 42.678282 42.794446 42.907640 43.017784 43.124783 43.228564
43.329043 43.426152 43.519817 43.609979 43.696572 43.779545 43.858841 43.934419
44.006229 44.074237 44.138403 44.198700 44.255093 44.307563 44.356083 44.400637
44.441205 44.477777 44.510335 44.538874 44.563381 44.583853 44.600282 44.612665
44.620999 44.625283 44.625515 44.621697 44.613830 44.601917 44.585963 44.565971
44.541950 44.513906 44.481851 44.445793 44.405749 44.361732 44.313763 44.261859
44.206047 44.146349 44.082800 44.015428 43.944275 43.869375 43.790779 43.708530
43.622687 43.533299 43.440436 43.344155 43.244534 43.141640 43.035560 42.926366
42.814154 42.699004 42.581020 42.460288 42.336918 42.211000 42.082649 41.951961
41.819053 41.684024 41.546991 41.408055 41.267335 41.124928 40.980954 40.835508
40.688705 40.540639 40.391419 40.241135 40.089891 39.937770 39.784871 39.631269
39.477057 39.322302 39.167089 39.011477 38.855543 38.699339 38.542933 38.386369
38.229705 38.072978 37.916238 37.759514 37.602848 37.446261 37.289788 37.133441
36.977249 36.821218 36.665369 36.509702 36.354232 36.198955 36.043878 35.888992
35.734300 35.579790 35.425459 35.271291 35.117280 34.963407 34.809662 34.656026
34.502485 34.349018 34.195610 34.042240 33.888889
34.266667 34.454878 34.643109 34.831380 35.019712 35.208122 35.396629 35.585249
35.774000 35.962893 36.151945 36.341163 36.530559 36.720136 36.909903 37.099854
37.289996 37.480317 37.670815 37.861473 38.052283 38.243217 38.434263 38.625384
38.816558 39.007741 39.198901 39.389984 39.580951 39.771737 39.962293 40.152543
40.342431 40.531870 40.720792 40.909102 41.096723 41.283550 41.469495 41.654444
41.838304 42.020950 42.202281 42.382167 42.560499 42.737141 42.911980 43.084875
43.255710 43.424341 43.590651 43.754495 43.915756 44.074291 44.229983 44.382695
44.532312 44.678703 44.821758 44.961353 45.097385 45.229739 45.358320 45.483021
45.603759 45.720436 45.832978 45.941299 46.045334 46.145010 46.240271 46.331054
46.417314 46.498997 46.576067 46.648481 46.716210 46.779218 46.837486 46.890984
46.939699 46.983608 47.022702 47.056965 47.086390 47.110966 47.130690 47.145556
47.155561 47.160703 47.160981 47.156397 47.146951 47.132649 47.113493 47.089491
47.060648 47.026977 46.988486 46.945192 46.897106 46.844250 46.786643 46.724312
46.657280 46.585583 46.509252 46.428332 46.342859 46.252889 46.158467 46.059660
45.956522 45.849130 45.737549 45.621866 45.502157 45.378520 45.251040 45.119826
44.984971 44.846594 44.704797 44.559708 44.411434 44.260111 44.105851 43.948795
43.789059 43.626788 43.462099 43.295138 43.126023 42.954899 42.781883 42.607115
42.430710 42.252805 42.073509 41.892952 41.711237 41.528487 41.344798 41.160285
40.975034 40.789151 40.602713 40.415818 40.228531 40.040941 39.853103 39.665095
39.476964 39.288777 39.100570 38.912401 38.724298 38.536307 38.348449 38.160759
37.973252 37.785954 37.598870 37.412020 37.225403 37.039030 36.852894 36.666999
36.481334 36.295898 36.110673 35.925653 35.740819 35.556158 35.371648 35.187275
35.003014 34.818846 34.634747 34.450695 34.266667
34.644444 34.864039 35.083658 35.303325 35.523063 35.742894 35.962840 36.182923
36.403158 36.623568 36.844161 37.064958 37.285962 37.507188 37.728635 37.950311
38.172208 38.394328 38.616655 38.839185 39.061891 39.284761 39.507760 39.730866
39.954033 40.177231 40.400402 40.623505 40.846471 41.069248 41.291756 41.513932
41.735681 41.956931 42.177576 42.397530 42.616677 42.834920 43.052131 43.268204
43.482998 43.696400 43.908259 44.118453 44.326825 44.533245 44.737549 44.939603
45.139240 45.336322 45.530679 45.722173 45.910635 46.095926 46.277883 46.456368
46.631224 46.802318 46.969500 47.132647 47.291615 47.446290 47.596541 47.742264
47.883339 48.019673 48.151160 48.277719 48.399256 48.515702 48.626976 48.733021
48.833770 48.929175 49.019180 49.103748 49.182836 49.256413 49.324445 49.386911
49.443784 49.495048 49.540685 49.580684 49.615032 49.643721 49.666743 49.684095
49.695772 49.701773 49.702097 49.696744 49.685718 49.669021 49.646660 49.618640
49.584970 49.545660 49.500724 49.450175 49.394034 49.332317 49.265053 49.192265
49.113989 49.030255 48.941111 48.846594 48.746763 48.641664 48.531368 48.415934
48.295444 48.169967 48.039601 47.904425 47.764550 47.620067 47.471100 47.317753
47.160158 46.998432 46.832718 46.663141 46.489853 46.312986 46.132701 45.949134
45.762451 45.572792 45.380326 45.185193 44.987563 44.787574 44.585396 44.381163
44.175039 43.967156 43.757670 43.546706 43.334413 43.120907 42.906329 42.690784
42.474402 42.257279 42.039534 41.821251 41.602536 41.383464 41.164128 40.944591
40.724935 40.505210 40.285486 40.065803 39.846220 39.626765 39.407487 39.188403
38.969551 38.750941 38.532600 38.314529 38.096746 37.879246 37.662037 37.445108
37.228460 37.012076 36.795951 36.580063 36.364401 36.148939 35.933662 35.718542
35.503558 35.288683 35.073891 34.859153 34.644444
35.022222 35.273207 35.524220 35.775288 36.026441 36.277701 36.529097 36.780650
37.032385 37.284319 37.536475 37.788862 38.041500 38.294391 38.547549 38.800970
39.054661 39.308607 39.562809 39.817243 40.071899 40.326744 40.581760 40.836898
41.092131 41.347400 41.602665 41.857852 42.112911 42.367754 42.622318 42.876502
43.130228 43.383383 43.635875 43.887578 44.138386 44.388159 44.636780 44.884096
45.129979 45.374264 45.616813 45.857449 46.096028 46.332364 46.566304 46.797660
47.026271 47.251946 47.474523 47.693808 47.909640 48.121827 48.330211 48.534605
48.734855 48.930781 49.122238 49.309054 49.491094 49.668200 49.840246 50.007088
50.168612 50.324689 50.475220 50.620090 50.759213 50.892490 51.019850 51.141208
51.256505 51.365672 51.468661 51.565415 51.655899 51.740068 51.817895 51.889344
51.954397 52.013028 52.065225 52.110967 52.150247 52.183054 52.209381 52.229221
52.242573 52.249434 52.249802 52.243681 52.231070 52.211976 52.186402 52.154358
52.115850 52.070892 52.019495 51.961680 51.897460 51.826865 51.749914 51.666645
51.577086 51.481284 51.379277 51.271123 51.156872 51.036594 50.910351 50.778229
50.640299 50.496666 50.347413 50.192659 50.032504 49.867080 49.696500 49.520911
49.340439 49.155245 48.965466 48.771273 48.572814 48.370269 48.163794 47.953578
47.739778 47.522590 47.302174 47.078726 46.852407 46.623413 46.391902 46.158065
45.922056 45.684060 45.444223 45.202724 44.959700 44.715318 44.469704 44.223015
43.975367 43.726901 43.477722 43.227958 42.977700 42.727064 42.476125 42.224986
41.973709 41.722383 41.471058 41.219808 40.968670 40.717706 40.466943 40.216427
39.966175 39.716223 39.466577 39.217261 38.968273 38.719627 38.471314 38.223337
37.975680 37.728339 37.481293 37.234531 36.988025 36.741758 36.495702 36.249832
36.004118 35.758532 35.513041 35.267616 35.022222
35.400000 35.682381 35.964794 36.247272 36.529845 36.812545 37.095398 37.378436
37.661680 37.945159 38.228887 38.512891 38.797177 39.081765 39.366655 39.651860
39.937370 40.223189 40.509299 40.795693 41.082341 41.369228 41.656308 41.943556
42.230913 42.518342 42.805768 43.093141 43.380371 43.667393 43.954103 44.240420
44.526225 44.811422 45.095875 45.379474 45.662067 45.943530 46.223696 46.502427
46.779542 47.054891 47.328280 47.599548 47.868490 48.134937 48.398676 48.659530
48.917280 49.171746 49.422707 49.669980 49.913345 50.152620 50.387590 50.618077
50.843872 51.064805 51.280678 51.491328 51.696571 51.896258 52.090217 52.278313
52.460391 52.636332 52.805997 52.969283 53.126069 53.276268 53.419776 53.556522
53.686418 53.809407 53.925419 54.034409 54.136319 54.231118 54.318760 54.399221
54.472470 54.538488 54.597253 54.648753 54.692973 54.729905 54.759540 54.781874
54.796902 54.804623 54.805036 54.798143 54.783946 54.762449 54.733658 54.697580
54.654226 54.603606 54.545738 54.480634 54.408321 54.328817 54.242157 54.148368
54.047496 53.939576 53.824666 53.702814 53.574092 53.438559 53.296305 53.147403
52.991959 52.830061 52.661833 52.487379 52.306840 52.120336 51.928025 51.730043
51.526564 51.317737 51.103751 50.884767 50.660985 50.432578 50.199756 49.962697
49.721618 49.476703 49.228173 48.976212 48.721041 48.462843 48.201837 47.938201
47.672149 47.403851 47.133514 46.861299 46.587400 46.311969 46.035188 45.757193
45.478155 45.198197 44.917472 44.636090 44.354188 44.071861 43.789230 43.506374
43.223400 42.940371 42.657378 42.374470 42.091722 41.809171 41.526875 41.244860
40.963170 40.681818 40.400836 40.120227 39.840010 39.560179 39.280743 39.001685
38.723007 38.444684 38.166708 37.889051 37.611696 37.334611 37.057771 36.781142
36.504694 36.228391 35.952199 35.676081 35.400000
35.777778 36.091561 36.405382 36.719275 37.033278 37.347423 37.661747 37.976278
38.291049 38.606082 38.921409 39.237042 39.553008 39.869311 40.185972 40.502986
40.820363 41.138088 41.456162 41.774558 42.093265 42.412242 42.731468 43.050885
43.370459 43.690118 44.009812 44.329452 44.648973 44.968269 45.287258 45.605817
45.923847 46.241207 46.557782 46.873411 47.187965 47.501264 47.813162 48.123465
48.432011 48.738591 49.043029 49.345103 49.644626 49.941366 50.235125 50.525663
50.812777 51.096222 51.375791 51.651238 51.922356 52.188902 52.450671 52.707427
52.958972 53.205079 53.445559 53.680199 53.908823 54.131231 54.347265 54.556741
54.759518 54.955433 55.144359 55.326155 55.500713 55.667911 55.827660 55.979856
56.124427 56.261288 56.390384 56.511645 56.625030 56.730484 56.827978 56.917470
56.998940 57.072358 57.137710 57.194976 57.244147 57.285209 57.318159 57.342988
57.359696 57.368278 57.368735 57.361069 57.345281 57.321378 57.289362 57.249245
57.201033 57.144741 57.080381 57.007976 56.927542 56.839110 56.742704 56.638368
56.526134 56.406058 56.278183 56.142583 55.999313 55.848463 55.690105 55.524345
55.351275 55.171020 54.983687 54.789423 54.588354 54.380645 54.166440 53.945925
53.719259 53.486645 53.248258 53.004317 52.755008 52.500562 52.241178 51.977094
51.708515 51.435688 51.158819 50.878156 50.593908 50.306320 50.015597 49.721981
49.425669 49.126896 48.825848 48.522750 48.217777 47.911141 47.603003 47.293559
46.982955 46.671372 46.358939 46.045818 45.732123 45.417999 45.103542 44.788877
44.474084 44.159272 43.844503 43.529869 43.215417 42.901220 42.587311 42.273748
41.960551 41.647761 41.335385 41.023453 40.711959 40.400920 40.090321 39.780167
39.470435 39.161119 38.852190 38.543631 38.235409 37.927499 37.619864 37.312472
37.005283 36.698261 36.391363 36.084549 35.777778
36.155556 36.500748 36.845981 37.191297 37.536736 37.882339 38.228140 38.574180
38.920486 39.267097 39.614033 39.961326 40.308988 40.657045 41.005500 41.354369
41.703644 42.053331 42.403409 42.753875 43.104690 43.455839 43.807269 44.158951
44.510813 44.862812 45.214858 45.566889 45.918799 46.270509 46.621890 46.972846
47.323229 47.672924 48.021762 48.369609 48.716278 49.061615 49.405415 49.747506
50.087664 50.425703 50.761383 51.094501 51.424806 51.752083 52.076070 52.396542
52.713231 53.025906 53.334294 53.638165 53.937245 54.231305 54.520076 54.803335
55.080823 55.352325 55.617595 55.876430 56.128601 56.373921 56.612179 56.843208
57.066815 57.282854 57.491155 57.691591 57.884017 58.068324 58.244391 58.412128
58.571435 58.722243 58.864468 58.998060 59.122952 59.239107 59.346476 59.445032
59.534739 59.615580 59.687529 59.750576 59.804703 59.849905 59.886173 59.913502
59.931890 59.941334 59.941835 59.933393 59.916013 59.889697 59.854453 59.810285
59.757208 59.695228 59.624366 59.544635 59.456063 59.358669 59.252493 59.137564
59.013933 58.881641 58.740755 58.591331 58.433452 58.267191 58.092651 57.909922
57.719131 57.520386 57.313836 57.099610 56.877879 56.648793 56.412545 56.169305
55.919286 55.662677 55.399709 55.130586 54.855558 54.574838 54.288690 53.997337
53.701050 53.400060 53.094641 52.785026 52.471490 52.154262 51.833615 51.509773
51.183001 50.853512 50.521562 50.187353 49.851125 49.513067 49.173404 48.832307
48.489983 48.146586 47.802304 47.457272 47.111660 46.765581 46.419186 46.072570
45.725863 45.379142 45.032515 44.686044 44.339818 43.993879 43.648299 43.303107
42.958355 42.614057 42.270251 41.926937 41.584139 41.241844 40.900063 40.558774
40.217974 39.877635 39.537743 39.198260 38.859165 38.520416 38.181982 37.843817
37.505885 37.168137 36.830531 36.493019 36.155556
36.533333 36.909938 37.286591 37.663335 38.040219 38.417284 38.794577 39.172132
39.549995 39.928193 40.306765 40.685732 41.065126 41.444958 41.825251 42.206004
42.587232 42.968919 43.351069 43.733650 44.116655 44.500034 44.883765 45.267782
45.652044 46.036466 46.420992 46.805515 47.189958 47.574196 47.958132 48.341616
48.724532 49.106709 49.488009 49.868237 50.247237 50.624792 51.000724 51.374798
51.746814 52.116520 52.483699 52.848081 53.209436 53.567479 53.921968 54.272608
54.619150 54.961291 55.298777 55.631305 55.958621 56.280424 56.596463 56.906447
57.210131 57.507237 57.797534 58.080759 58.356697 58.625105 58.885787 59.138522
59.383138 59.619436 59.847266 60.066457 60.276882 60.478393 60.670886 60.854241
61.028373 61.193184 61.348610 61.494573 61.631027 61.757913 61.875197 61.982836
62.080809 62.169084 62.247650 62.316484 62.375580 62.424926 62.464517 62.494349
62.514419 62.524725 62.525268 62.516051 62.497074 62.468343 62.429861 62.381639
62.323682 62.256007 62.178622 62.091552 61.994812 61.888436 61.772448 61.646895
61.511812 61.367261 61.213292 61.049986 60.877408 60.695660 60.504827 60.305035
60.096390 59.879041 59.653117 59.418794 59.176222 58.925603 58.667111 58.400971
58.127378 57.846580 57.558792 57.264281 56.963277 56.656063 56.342884 56.024033
55.699763 55.370377 55.036129 54.697326 54.354222 54.007122 53.656275 53.301980
52.944477 52.584056 52.220944 51.855417 51.487688 51.118015 50.746594 50.373665
49.999405 49.624031 49.247702 48.870613 48.492900 48.114738 47.736241 47.357562
46.978793 46.600065 46.221452 45.843061 45.464947 45.087198 44.709851 44.332972
43.956584 43.580734 43.205428 42.830699 42.456538 42.082963 41.709953 41.337512
40.965609 40.594236 40.223353 39.852940 39.482953 39.113361 38.744115 38.375176
38.006492 37.638019 37.269702 36.901491 36.533333
36.911111 37.319134 37.727208 38.135388 38.543720 38.952259 39.361047 39.770136
40.179561 40.589370 40.999591 41.410264 41.821408 42.233056 42.645212 43.057902
43.471117 43.884869 44.299135 44.713913 45.129162 45.544867 45.960967 46.377430
46.794175 47.211150 47.628255 48.045417 48.462510 48.879444 49.296067 49.712266
50.127868 50.542733 50.956664 51.369501 51.781019 52.191037 52.599307 53.005625
53.409721 53.811370 54.210285 54.606220 54.998872 55.387980 55.773227 56.154340
56.530994 56.902909 57.269754 57.631246 57.987054 58.336899 58.680455 59.017450
59.347569 59.670551 59.986098 60.293965 60.593873 60.885599 61.168888 61.443537
61.709320 61.966059 62.213554 62.451656 62.680191 62.899036 63.108048 63.307125
63.496152 63.675050 63.843729 64.002130 64.150182 64.287846 64.415070 64.531826
64.638079 64.733813 64.819002 64.893639 64.957708 65.011206 65.054123 65.086460
65.108213 65.119382 65.119967 65.109971 65.089396 65.058244 65.016523 64.964236
64.901395 64.828007 64.744090 64.649655 64.544732 64.429337 64.303512 64.167285
64.020713 63.863837 63.696732 63.519457 63.332109 63.134767 62.927551 62.710564
62.483951 62.247841 62.002408 61.747804 61.484232 61.211872 60.930954 60.641681
60.344311 60.039071 59.726241 59.406067 59.078851 58.744854 58.404395 58.057747
57.705238 57.347148 56.983812 56.615512 56.242582 55.865302 55.484001 55.098952
54.710474 54.318828 53.924321 53.527197 53.127746 52.726195 52.322813 51.917806
51.511423 51.103846 50.695300 50.285945 49.875982 49.465548 49.054818 48.643905
48.232962 47.822077 47.411380 47.000939 46.590857 46.181184 45.772003 45.363342
44.955263 44.547780 44.140933 43.734721 43.329168 42.924258 42.519998 42.116362
41.713342 41.310901 40.909020 40.507653 40.106770 39.706319 39.306260 38.906538
38.507104 38.107900 37.708873 37.309962 36.911111
37.288889 37.728331 38.167832 38.607448 39.047237 39.487251 39.927549 40.368175
40.809183 41.250612 41.692509 42.134903 42.577834 43.021318 43.465388 43.910045
44.355309 44.801166 45.247624 45.694650 46.142237 46.590332 47.038912 47.487902
47.937259 48.386885 48.836717 49.286633 49.736546 50.186310 50.635812 51.084881
51.533380 51.981108 52.427906 52.873545 53.317838 53.760533 54.201417 54.640212
55.076682 55.510526 55.941485 56.369239 56.793510 57.213959 57.630295 58.042166
58.449270 58.851245 59.247784 59.638525 60.023158 60.401324 60.772720 61.136995
61.493855 61.842966 62.184051 62.516794 62.840938 63.156193 63.462326 63.759076
64.046237 64.323577 64.590920 64.848066 65.094866 65.331154 65.556809 65.771694
65.975716 66.168765 66.350773 66.521656 66.681365 66.829837 66.967041 67.092933
67.207495 67.310696 67.402528 67.482971 67.552023 67.609673 67.655922 67.690764
67.714201 67.726232 67.726859 67.716083 67.693906 67.660332 67.615364 67.559010
67.491273 67.412167 67.321698 67.219889 67.106751 66.982319 66.846613 66.699683
66.541561 66.372314 66.191993 66.000687 65.798467 65.585445 65.361718 65.127426
64.882691 64.627686 64.362559 64.087514 63.802730 63.508442 63.204857 62.892241
62.570828 62.240911 61.902749 61.556661 61.202924 60.841877 60.473815 60.099091
59.718009 59.330931 58.938169 58.540086 58.136992 57.729250 57.317162 56.901084
56.481307 56.058173 55.631959 55.202990 54.771522 54.337860 53.902239 53.464941
53.026177 52.586203 52.145205 51.703412 51.260984 50.818125 50.374969 49.931691
49.488401 49.045247 48.602315 48.159728 47.717548 47.275873 46.834745 46.394239
45.954376 45.515210 45.076744 44.639013 44.202004 43.765732 43.330172 42.895323
42.461147 42.027628 41.594721 41.162395 40.730597 40.299286 39.868403 39.437899
39.007709 38.577778 38.148039 37.718432 37.288889
37.666667 38.137530 38.608457 39.079513 39.550758 40.022257 40.494065 40.966244
41.438840 41.911912 42.385495 42.859642 43.334378 43.809744 44.285751 44.762432
45.239781 45.717815 46.196513 46.675876 47.155862 47.636455 48.117591 48.599235
49.081297 49.563722 50.046395 50.529235 51.012101 51.494887 51.977423 52.459578
52.941151 53.421984 53.901847 54.380553 54.857844 55.333503 55.807245 56.278826
56.747934 57.214299 57.677585 58.137501 58.593687 59.045835 59.493567 59.936560
60.374425 60.806829 61.233378 61.653733 62.067501 62.474346 62.873882 63.265780
63.649668 64.025234 64.392122 64.750042 65.098665 65.437723 65.766919 66.086013
66.394740 66.692893 66.980241 67.256610 67.521805 67.775683 68.018083 68.248895
68.467989 68.675281 68.870674 69.054107 69.225508 69.384838 69.532044 69.667105
69.789986 69.900676 69.999154 70.085416 70.159451 70.221261 70.270839 70.308189
70.333308 70.346201 70.346868 70.335311 70.311532 70.275532 70.227318 70.166888
70.094253 70.009414 69.912388 69.803180 69.681817 69.548312 69.402703 69.245017
69.075309 68.893620 68.700029 68.494596 68.277426 68.048604 67.808264 67.556517
67.293531 67.019448 66.734469 66.438770 66.132586 65.816125 65.489657 65.153422
64.807722 64.452827 64.089067 63.716737 63.336194 62.947752 62.551787 62.148627
61.738663 61.322231 60.899728 60.471494 60.037924 59.599353 59.156173 58.708708
58.257337 57.802370 57.344169 56.883024 56.419277 55.953195 55.485094 55.015216
54.543851 54.071213 53.597564 53.123090 52.648023 52.172521 51.696786 51.220948
50.745179 50.269585 49.794307 49.319425 48.845054 48.371249 47.898101 47.425640
46.953935 46.482995 46.012866 45.543541 45.075044 44.607352 44.140470 43.674362
43.209018 42.744388 42.280448 41.817141 41.354426 40.892242 40.430538 39.969244
39.508303 39.047643 38.587199 38.126896 37.666667
38.044444 38.546726 39.049079 39.551573 40.054279 40.557260 41.060589 41.564321
42.068523 42.573242 43.078540 43.584452 44.091030 44.598297 45.106295 45.615029
46.124529 46.634783 47.145804 47.657560 48.170047 48.683210 49.197024 49.711411
50.226324 50.741656 51.257337 51.773232 52.289243 52.805205 53.320994 53.836412
54.351305 54.865444 55.378643 55.890643 56.401227 56.910103 57.417023 57.921665
58.423754 58.922938 59.418914 59.911306 60.399788 60.883962 61.363482 61.837935
62.306962 62.770137 63.227095 63.677406 64.120703 64.556561 64.984619 65.404462
65.815742 66.218063 66.611096 66.994472 67.367885 67.730996 68.083532 68.425189
68.755727 69.074879 69.382442 69.678188 69.961951 70.233541 70.492827 70.739656
70.973931 71.195533 71.404391 71.600419 71.783571 71.953784 72.111032 72.255275