<?xml version="1.0"?>
<VTKFile type="ImageData" version="0.1" byte_order="LittleEndian">
  <ImageData WholeExtent="0 180 0 180 0 0" Origin="0.0 0.0 0.0" Spacing="0.05 0.05 1">
    <Piece Extent="0 180 0 180 0 0">
      <PointData Scalars="Temperature">
        <DataArray type="Float32" Name="Temperature" format="ascii">
32.000000 32.000000 32.000000 32.000000 32.000000 32.000000 32.000000 32.000000 32.000000 32.000000 32.000000 32.000000 32.000000 32.000000 32.000000 32.000000 32.000000 32.000000 32.000000 32.000000 32.000000 32.000000 32.000000 32.000000 32.000000 32.000000 32.000000 32.000000 32.000000 32.000000 32.000000 32.000000 32.000000 32.000000 32.000000 32.000000 32.000000 32.000000 32.000000 32.000000 32.000000 32.000000 32.000000 32.000000 32.000000 32.000000 32.000000 32.000000 32.000000 32.000000 32.000000 32.000000 32.000000 32.000000 32.000000 32.000000 32.000000 32.000000 32.000000 32.000000 32.000000 32.000000 32.000000 32.000000 32.000000 32.000000 32.000000 32.000000 32.000000 32.000000 32.000000 32.000000 32.000000 32.000000 32.000000 32.000000 32.000000 32.000000 32.000000 32.000000 32.000000 32.000000 32.000000 32.000000 32.000000 32.000000 32.000000 32.000000 32.000000 32.000000 32.000000 32.000000 32.000000 32.000000 32.000000 32.000000 32.000000 32.000000 32.000000 32.000000 32.000000 32.000000 32.000000 32.000000 32.000000 32.000000 32.000000 32.000000 32.000000 32.000000 32.000000 32.000000 32.000000 32.000000 32.000000 32.000000 32.000000 32.000000 32.000000 32.000000 32.000000 32.000000 32.000000 32.000000 32.000000 32.000000 32.000000 32.000000 32.000000 32.000000 32.000000 32.000000 32.000000 32.000000 32.000000 32.000000 32.000000 32.000000 32.000000 32.000000 32.000000 32.000000 32.000000 32.000000 32.000000 32.000000 32.000000 32.000000 32.000000 32.000000 32.000000 32.000000 32.000000 32.000000 32.000000 32.000000 32.000000 32.000000 32.000000 32.000000 32.000000 32.000000 32.000000 32.000000 32.000000 32.000000 32.000000 32.000000 32.000000 32.000000 32.000000 32.000000 32.000000 32.000000 32.000000 32.000000 32.000000 32.000000 32.000000 32.000000 32.000000
32.377778 32.354702 32.331761 32.309088 32.286810 32.265049 32.243917 32.223515 32.203935 32.185252 32.167530 32.150817 32.135149 32.120547 32.107017 32.094554 32.083141 32.072752 32.063349 32.054889 32.047322 32.040593 32.034646 32.029419 32.024853 32.020888 32.017464 32.014526 32.012019 32.009893 32.008101 32.006599 32.005348 32.004312 32.003460 32.002763 32.002197 32.001741 32.001375 32.001084 32.000855 32.000675 32.000537 32.000431 32.000352 32.000294 32.000252 32.000224 32.000206 32.000197 32.000193 32.000196 32.000202 32.000211 32.000222 32.000236 32.000250 32.000266 32.000282 32.000299 32.000315 32.000332 32.000348 32.000365 32.000380 32.000396 32.000410 32.000424 32.000436 32.000449 32.000460 32.000470 32.000479 32.000489 32.000496 32.000504 32.000510 32.000516 32.000520 32.000525 32.000529 32.000532 32.000535 32.000537 32.000539 32.000541 32.000542 32.000543 32.000543 32.000543 32.000543 32.000543 32.000543 32.000542 32.000541 32.000539 32.000537 32.000535 32.000532 32.000529 32.000525 32.000520 32.000516 32.000510 32.000504 32.000496 32.000489 32.000479 32.000470 32.000459 32.000449 32.000436 32.000424 32.000410 32.000396 32.000380 32.000365 32.000348 32.000332 32.000315 32.000298 32.000281 32.000265 32.000248 32.000233 32.000219 32.000206 32.000195 32.000187 32.000181 32.000180 32.000183 32.000194 32.000212 32.000241 32.000283 32.000343 32.000423 32.000529 32.000668 32.000849 32.001079 32.001370 32.001737 32.002194 32.002760 32.003457 32.004310 32.005346 32.006597 32.008100 32.009892 32.012018 32.014525 32.017464 32.020887 32.024853 32.029419 32.034646 32.040593 32.047322 32.054889 32.063349 32.072751 32.083141 32.094554 32.107017 32.120547 32.135149 32.150817 32.167530 32.185252 32.203935 32.223515 32.243917 32.265049 32.286810 32.309088 32.331761 32.354702 32.377778
32.755556 32.709404 32.663523 32.618176 32.573621 32.530098 32.487834 32.447031 32.407869 32.370503 32.335059 32.301634 32.270299 32.241094 32.214033 32.189108 32.166282 32.145503 32.126697 32.109778 32.094644 32.081187 32.069292 32.058839 32.049707 32.041776 32.034929 32.029053 32.024039 32.019787 32.016203 32.013199 32.010697 32.008626 32.006922 32.005529 32.004398 32.003485 32.002754 32.002172 32.001715 32.001357 32.001081 32.000870 32.000713 32.000597 32.000516 32.000460 32.000427 32.000409 32.000406 32.000411 32.000426 32.000445 32.000471 32.000499 32.000531 32.000564 32.000599 32.000633 32.000670 32.000704 32.000740 32.000773 32.000808 32.000838 32.000870 32.000898 32.000926 32.000951 32.000976 32.000997 32.001018 32.001036 32.001053 32.001068 32.001082 32.001093 32.001104 32.001113 32.001121 32.001128 32.001134 32.001139 32.001143 32.001146 32.001149 32.001151 32.001152 32.001153 32.001153 32.001152 32.001151 32.001149 32.001146 32.001143 32.001139 32.001134 32.001128 32.001121 32.001113 32.001104 32.001093 32.001082 32.001068 32.001053 32.001036 32.001018 32.000997 32.000976 32.000951 32.000926 32.000898 32.000870 32.000838 32.000807 32.000773 32.000740 32.000704 32.000669 32.000632 32.000597 32.000561 32.000528 32.000494 32.000464 32.000435 32.000412 32.000392 32.000380 32.000375 32.000382 32.000400 32.000436 32.000492 32.000576 32.000693 32.000853 32.001064 32.001343 32.001702 32.002161 32.002744 32.003476 32.004390 32.005523 32.006916 32.008621 32.010693 32.013196 32.016200 32.019785 32.024037 32.029051 32.034928 32.041775 32.049706 32.058838 32.069291 32.081187 32.094643 32.109777 32.126697 32.145503 32.166282 32.189108 32.214033 32.241094 32.270299 32.301634 32.335059 32.370503 32.407869 32.447031 32.487834 32.530098 32.573621 32.618176 32.663523 32.709404 32.755556
33.133333 33.064106 32.995284 32.927264 32.860431 32.795147 32.731751 32.670546 32.611804 32.555755 32.502589 32.452452 32.405448 32.361640 32.321050 32.283662 32.249424 32.218255 32.190046 32.164667 32.141966 32.121781 32.103938 32.088258 32.074560 32.062665 32.052394 32.043580 32.036060 32.029683 32.024307 32.019802 32.016049 32.012944 32.010388 32.008300 32.006603 32.005236 32.004140 32.003271 32.002585 32.002051 32.001639 32.001327 32.001092 32.000924 32.000803 32.000726 32.000678 32.000657 32.000654 32.000670 32.000694 32.000731 32.000772 32.000823 32.000873 32.000930 32.000986 32.001046 32.001103 32.001163 32.001219 32.001277 32.001330 32.001384 32.001433 32.001482 32.001526 32.001570 32.001608 32.001645 32.001677 32.001709 32.001735 32.001761 32.001782 32.001803 32.001820 32.001835 32.001848 32.001860 32.001869 32.001878 32.001884 32.001890 32.001894 32.001897 32.001899 32.001900 32.001900 32.001899 32.001897 32.001894 32.001890 32.001884 32.001878 32.001869 32.001860 32.001848 32.001835 32.001820 32.001803 32.001782 32.001761 32.001735 32.001709 32.001677 32.001645 32.001607 32.001570 32.001526 32.001482 32.001433 32.001384 32.001330 32.001277 32.001218 32.001162 32.001102 32.001044 32.000983 32.000926 32.000868 32.000815 32.000761 32.000716 32.000673 32.000641 32.000616 32.000606 32.000609 32.000635 32.000684 32.000766 32.000887 32.001061 32.001297 32.001613 32.002027 32.002565 32.003252 32.004124 32.005221 32.006591 32.008289 32.010379 32.012935 32.016043 32.019796 32.024302 32.029679 32.036057 32.043578 32.052392 32.062663 32.074559 32.088257 32.103937 32.121780 32.141965 32.164666 32.190046 32.218255 32.249424 32.283661 32.321050 32.361640 32.405448 32.452452 32.502589 32.555755 32.611804 32.670546 32.731751 32.795147 32.860431 32.927264 32.995284 33.064106 33.133333
33.511111 33.418808 33.327045 33.236352 33.147241 33.060196 32.975668 32.894062 32.815739 32.741007 32.670118 32.603269 32.540598 32.482187 32.428067 32.378216 32.332565 32.291007 32.253395 32.219556 32.189288 32.162375 32.138585 32.117679 32.099415 32.083554 32.069861 32.058109 32.048084 32.039581 32.032414 32.026408 32.021406 32.017266 32.013861 32.011078 32.008819 32.006998 32.005541 32.004384 32.003475 32.002766 32.002222 32.001809 32.001505 32.001283 32.001133 32.001034 32.000981 32.000959 32.000967 32.000993 32.001040 32.001095 32.001165 32.001237 32.001320 32.001402 32.001493 32.001579 32.001670 32.001756 32.001846 32.001929 32.002014 32.002091 32.002169 32.002239 32.002309 32.002370 32.002432 32.002485 32.002536 32.002581 32.002624 32.002660 32.002694 32.002723 32.002750 32.002772 32.002793 32.002809 32.002824 32.002836 32.002846 32.002854 32.002861 32.002865 32.002868 32.002870 32.002870 32.002868 32.002865 32.002861 32.002854 32.002846 32.002836 32.002824 32.002809 32.002793 32.002772 32.002750 32.002723 32.002694 32.002660 32.002624 32.002581 32.002536 32.002484 32.002432 32.002370 32.002309 32.002239 32.002169 32.002090 32.002013 32.001928 32.001845 32.001755 32.001668 32.001576 32.001489 32.001397 32.001313 32.001226 32.001150 32.001074 32.001012 32.000955 32.000916 32.000890 32.000890 32.000913 32.000973 32.001074 32.001232 32.001455 32.001766 32.002181 32.002731 32.003442 32.004356 32.005515 32.006976 32.008800 32.011062 32.013847 32.017254 32.021396 32.026399 32.032406 32.039575 32.048079 32.058105 32.069858 32.083552 32.099413 32.117677 32.138583 32.162374 32.189288 32.219555 32.253395 32.291006 32.332565 32.378215 32.428067 32.482187 32.540597 32.603269 32.670118 32.741007 32.815739 32.894062 32.975667 33.060196 33.147241 33.236352 33.327045 33.418808 33.511111
33.888889 33.773510 33.658807 33.545440 33.434052 33.325246 33.219584 33.117577 33.019674 32.926259 32.837648 32.754086 32.675747 32.602734 32.535084 32.472770 32.415707 32.363759 32.316745 32.274445 32.236611 32.202970 32.173232 32.147100 32.124271 32.104446 32.087330 32.072641 32.060110 32.049483 32.040525 32.033020 32.026769 32.021598 32.017343 32.013869 32.011048 32.008777 32.006960 32.005521 32.004389 32.003513 32.002839 32.002335 32.001961 32.001699 32.001518 32.001411 32.001354 32.001346 32.001366 32.001420 32.001489 32.001582 32.001681 32.001797 32.001912 32.002041 32.002165 32.002299 32.002425 32.002557 32.002681 32.002808 32.002925 32.003043 32.003150 32.003258 32.003354 32.003449 32.003532 32.003613 32.003684 32.003752 32.003811 32.003867 32.003913 32.003958 32.003994 32.004029 32.004056 32.004082 32.004102 32.004120 32.004134 32.004147 32.004155 32.004162 32.004166 32.004169 32.004169 32.004166 32.004162 32.004155 32.004147 32.004134 32.004120 32.004102 32.004082 32.004056 32.004029 32.003994 32.003958 32.003913 32.003867 32.003811 32.003752 32.003684 32.003613 32.003532 32.003449 32.003353 32.003258 32.003150 32.003043 32.002924 32.002807 32.002679 32.002556 32.002422 32.002295 32.002160 32.002034 32.001903 32.001783 32.001662 32.001557 32.001455 32.001373 32.001303 32.001261 32.001240 32.001260 32.001319 32.001437 32.001619 32.001892 32.002269 32.002782 32.003459 32.004344 32.005479 32.006924 32.008744 32.011021 32.013844 32.017323 32.021579 32.026755 32.033007 32.040515 32.049474 32.060103 32.072635 32.087325 32.104442 32.124268 32.147097 32.173230 32.202968 32.236610 32.274444 32.316744 32.363758 32.415706 32.472769 32.535084 32.602734 32.675747 32.754086 32.837648 32.926259 33.019674 33.117577 33.219584 33.325246 33.434052 33.545440 33.658807 33.773510 33.888889
34.266667 34.128212 33.990568 33.854528 33.720862 33.590295 33.463501 33.341093 33.223608 33.111510 33.005178 32.904903 32.810897 32.723281 32.642101 32.567324 32.498848 32.436511 32.380094 32.329335 32.283935 32.243566 32.207881 32.176523 32.149129 32.125339 32.104801 32.087176 32.072140 32.059390 32.048643 32.039639 32.032143 32.025939 32.020841 32.016675 32.013299 32.010578 32.008408 32.006688 32.005344 32.004300 32.003509 32.002914 32.002486 32.002184 32.001992 32.001878 32.001838 32.001844 32.001901 32.001983 32.002101 32.002231 32.002387 32.002546 32.002725 32.002899 32.003088 32.003268 32.003459 32.003638 32.003824 32.003995 32.004171 32.004330 32.004492 32.004636 32.004780 32.004907 32.005032 32.005141 32.005248 32.005339 32.005427 32.005501 32.005572 32.005631 32.005686 32.005732 32.005774 32.005808 32.005838 32.005862 32.005884 32.005900 32.005913 32.005922 32.005928 32.005931 32.005931 32.005928 32.005922 32.005913 32.005900 32.005884 32.005862 32.005838 32.005808 32.005774 32.005732 32.005686 32.005631 32.005572 32.005501 32.005427 32.005339 32.005248 32.005141 32.005032 32.004907 32.004780 32.004636 32.004491 32.004330 32.004170 32.003994 32.003823 32.003636 32.003456 32.003264 32.003082 32.002891 32.002713 32.002530 32.002365 32.002201 32.002060 32.001927 32.001824 32.001741 32.001701 32.001696 32.001753 32.001869 32.002077 32.002383 32.002825 32.003424 32.004228 32.005275 32.006631 32.008355 32.010534 32.013258 32.016642 32.020810 32.025915 32.032121 32.039622 32.048628 32.059378 32.072130 32.087168 32.104794 32.125333 32.149124 32.176519 32.207878 32.243563 32.283933 32.329334 32.380093 32.436510 32.498848 32.567323 32.642101 32.723281 32.810896 32.904903 33.005177 33.111510 33.223608 33.341093 33.463501 33.590295 33.720862 33.854528 33.990568 34.128212 34.266667
34.644444 34.482914 34.322329 34.163617 34.007672 33.855344 33.707418 33.564608 33.427543 33.296762 33.172707 33.055721 32.946046 32.843828 32.749118 32.661878 32.581990 32.509264 32.443444 32.384226 32.331259 32.284162 32.242531 32.205947 32.173989 32.146236 32.122276 32.101716 32.084176 32.069305 32.056769 32.046270 32.037529 32.030299 32.024355 32.019506 32.015574 32.012414 32.009892 32.007903 32.006346 32.005152 32.004243 32.003577 32.003096 32.002777 32.002574 32.002481 32.002458 32.002511 32.002604 32.002750 32.002917 32.003123 32.003337 32.003579 32.003820 32.004082 32.004335 32.004605 32.004859 32.005126 32.005373 32.005628 32.005861 32.006098 32.006312 32.006526 32.006717 32.006906 32.007071 32.007234 32.007374 32.007510 32.007625 32.007736 32.007829 32.007917 32.007989 32.008057 32.008112 32.008162 32.008202 32.008238 32.008266 32.008290 32.008307 32.008321 32.008329 32.008334 32.008334 32.008329 32.008321 32.008307 32.008290 32.008266 32.008238 32.008202 32.008162 32.008112 32.008057 32.007989 32.007917 32.007829 32.007736 32.007625 32.007510 32.007374 32.007234 32.007071 32.006906 32.006716 32.006526 32.006311 32.006097 32.005860 32.005627 32.005371 32.005123 32.004856 32.004600 32.004328 32.004073 32.003806 32.003561 32.003311 32.003088 32.002869 32.002684 32.002515 32.002391 32.002299 32.002269 32.002295 32.002411 32.002618 32.002958 32.003445 32.004129 32.005044 32.006255 32.007818 32.009820 32.012349 32.015520 32.019457 32.024315 32.030263 32.037499 32.046244 32.056749 32.069286 32.084162 32.101704 32.122267 32.146227 32.173982 32.205942 32.242527 32.284159 32.331257 32.384224 32.443443 32.509262 32.581989 32.661878 32.749118 32.843828 32.946046 33.055721 33.172707 33.296762 33.427543 33.564608 33.707418 33.855344 34.007672 34.163617 34.322329 34.482914 34.644444
35.022222 34.837617 34.654090 34.472705 34.294482 34.120393 33.951335 33.788124 33.631478 33.482014 33.340237 33.206538 33.081196 32.964376 32.856136 32.756433 32.665133 32.582017 32.506795 32.439118 32.378585 32.324760 32.277183 32.235374 32.198852 32.167136 32.139757 32.116262 32.096221 32.079228 32.064909 32.052915 32.042934 32.034678 32.027899 32.022366 32.017890 32.014291 32.011431 32.009175 32.007425 32.006080 32.005079 32.004342 32.003837 32.003502 32.003324 32.003251 32.003286 32.003385 32.003561 32.003771 32.004038 32.004319 32.004644 32.004970 32.005329 32.005679 32.006053 32.006410 32.006786 32.007138 32.007502 32.007838 32.008181 32.008493 32.008808 32.009089 32.009370 32.009618 32.009861 32.010074 32.010280 32.010458 32.010628 32.010772 32.010909 32.011024 32.011131 32.011219 32.011300 32.011365 32.011424 32.011471 32.011512 32.011543 32.011568 32.011586 32.011598 32.011604 32.011604 32.011598 32.011586 32.011568 32.011543 32.011512 32.011471 32.011424 32.011365 32.011300 32.011219 32.011131 32.011024 32.010909 32.010772 32.010628 32.010458 32.010280 32.010074 32.009861 32.009617 32.009370 32.009089 32.008807 32.008493 32.008180 32.007837 32.007500 32.007135 32.006782 32.006405 32.006046 32.005668 32.005314 32.004949 32.004615 32.004279 32.003982 32.003696 32.003459 32.003248 32.003104 32.003009 32.003004 32.003083 32.003291 32.003634 32.004166 32.004911 32.005937 32.007291 32.009061 32.011326 32.014204 32.017810 32.022300 32.027839 32.034630 32.042891 32.052880 32.064879 32.079204 32.096200 32.116245 32.139743 32.167125 32.198843 32.235367 32.277177 32.324756 32.378581 32.439115 32.506793 32.582015 32.665132 32.756432 32.856135 32.964375 33.081196 33.206538 33.340237 33.482014 33.631478 33.788124 33.951335 34.120393 34.294482 34.472705 34.654090 34.837617 35.022222
35.400000 35.192319 34.985852 34.781793 34.581293 34.385442 34.195252 34.011639 33.835413 33.667266 33.507767 33.357356 33.216346 33.084923 32.963153 32.850988 32.748276 32.654771 32.570147 32.494010 32.425912 32.365361 32.311837 32.264805 32.223719 32.188042 32.157244 32.130817 32.108275 32.089166 32.073063 32.059581 32.048361 32.039090 32.031474 32.025272 32.020252 32.016232 32.013036 32.010534 32.008592 32.007126 32.006032 32.005262 32.004734 32.004426 32.004272 32.004272 32.004366 32.004570 32.004828 32.005167 32.005533 32.005962 32.006397 32.006882 32.007358 32.007872 32.008366 32.008889 32.009383 32.009896 32.010374 32.010865 32.011314 32.011769 32.012179 32.012590 32.012956 32.013318 32.013635 32.013945 32.014214 32.014473 32.014694 32.014905 32.015082 32.015249 32.015387 32.015516 32.015620 32.015716 32.015793 32.015861 32.015913 32.015959 32.015991 32.016017 32.016033 32.016041 32.016041 32.016033 32.016017 32.015991 32.015959 32.015913 32.015861 32.015793 32.015716 32.015620 32.015516 32.015387 32.015249 32.015082 32.014905 32.014694 32.014473 32.014214 32.013945 32.013635 32.013318 32.012956 32.012590 32.012179 32.011768 32.011313 32.010863 32.010372 32.009893 32.009378 32.008883 32.008357 32.007859 32.007341 32.006858 32.006364 32.005917 32.005471 32.005083 32.004713 32.004416 32.004161 32.004000 32.003913 32.003955 32.004119 32.004466 32.005006 32.005812 32.006918 32.008415 32.010369 32.012897 32.016105 32.020146 32.025176 32.031396 32.039019 32.048304 32.059531 32.073023 32.089131 32.108248 32.130793 32.157225 32.188026 32.223707 32.264795 32.311830 32.365355 32.425907 32.494007 32.570144 32.654768 32.748274 32.850987 32.963152 33.084922 33.216345 33.357355 33.507766 33.667266 33.835413 34.011639 34.195252 34.385442 34.581293 34.781793 34.985852 35.192319 35.400000
35.777778 35.547021 35.317613 35.090881 34.868103 34.650491 34.439169 34.235155 34.039348 33.852518 33.675297 33.508174 33.351496 33.205471 33.070171 32.945544 32.831420 32.727526 32.633500 32.548905 32.473241 32.405964 32.346496 32.294240 32.248593 32.208955 32.174741 32.145383 32.120346 32.099121 32.081242 32.066272 32.053824 32.043537 32.035102 32.028230 32.022687 32.018247 32.014741 32.011995 32.009897 32.008310 32.007168 32.006364 32.005867 32.005587 32.005522 32.005594 32.005821 32.006129 32.006553 32.007021 32.007578 32.008152 32.008796 32.009437 32.010133 32.010808 32.011527 32.012211 32.012927 32.013599 32.014290 32.014930 32.015580 32.016172 32.016766 32.017300 32.017829 32.018298 32.018758 32.019159 32.019548 32.019882 32.020202 32.020474 32.020731 32.020946 32.021147 32.021312 32.021464 32.021586 32.021697 32.021784 32.021861 32.021918 32.021966 32.021999 32.022022 32.022032 32.022032 32.022022 32.021999 32.021966 32.021918 32.021861 32.021784 32.021697 32.021586 32.021464 32.021312 32.021147 32.020946 32.020731 32.020474 32.020202 32.019882 32.019548 32.019159 32.018758 32.018298 32.017829 32.017299 32.016765 32.016171 32.015578 32.014928 32.014288 32.013595 32.012922 32.012205 32.011517 32.010795 32.010114 32.009410 32.008760 32.008102 32.007509 32.006927 32.006426 32.005958 32.005593 32.005292 32.005123 32.005064 32.005184 32.005479 32.006028 32.006849 32.008037 32.009641 32.011779 32.014541 32.018079 32.022534 32.028104 32.034988 32.043444 32.053742 32.066206 32.081184 32.099074 32.120306 32.145351 32.174714 32.208934 32.248575 32.294226 32.346485 32.405955 32.473234 32.548900 32.633496 32.727522 32.831417 32.945542 33.070170 33.205470 33.351495 33.508173 33.675296 33.852518 34.039348 34.235155 34.439169 34.650491 34.868103 35.090881 35.317613 35.547021 35.777778
36.155556 35.901723 35.649374 35.399969 35.154914 34.915541 34.683086 34.458670 34.243283 34.037770 33.842827 33.658992 33.486646 33.326019 33.177190 33.040100 32.914564 32.800282 32.696855 32.603802 32.520573 32.446571 32.381158 32.323681 32.273474 32.229879 32.192249 32.159965 32.132433 32.109101 32.089446 32.073002 32.059326 32.048041 32.038786 32.031269 32.025204 32.020376 32.016561 32.013614 32.011358 32.009705 32.008514 32.007743 32.007275 32.007103 32.007126 32.007363 32.007721 32.008240 32.008828 32.009542 32.010288 32.011134 32.011985 32.012915 32.013827 32.014803 32.015740 32.016726 32.017658 32.018622 32.019521 32.020439 32.021282 32.022132 32.022901 32.023667 32.024352 32.025025 32.025618 32.026194 32.026694 32.027175 32.027586 32.027977 32.028306 32.028615 32.028872 32.029110 32.029303 32.029480 32.029621 32.029747 32.029844 32.029927 32.029988 32.030035 32.030064 32.030079 32.030079 32.030064 32.030035 32.029988 32.029927 32.029844 32.029747 32.029621 32.029480 32.029303 32.029110 32.028872 32.028615 32.028306 32.027977 32.027586 32.027175 32.026694 32.026194 32.025617 32.025025 32.024351 32.023667 32.022901 32.022131 32.021281 32.020437 32.019518 32.018619 32.017652 32.016718 32.015730 32.014788 32.013807 32.012886 32.011944 32.011079 32.010212 32.009439 32.008689 32.008052 32.007470 32.007030 32.006687 32.006527 32.006524 32.006769 32.007260 32.008098 32.009312 32.011024 32.013302 32.016300 32.020135 32.025004 32.031088 32.038638 32.047908 32.059219 32.072907 32.089370 32.109035 32.132381 32.159920 32.192213 32.229849 32.273451 32.323662 32.381144 32.446559 32.520564 32.603794 32.696849 32.800277 32.914561 33.040098 33.177188 33.326018 33.486645 33.658991 33.842826 34.037770 34.243283 34.458670 34.683086 34.915541 35.154913 35.399969 35.649374 35.901723 36.155556
36.533333 36.256425 35.981136 35.709057 35.441724 35.180590 34.927003 34.682186 34.447218 34.223022 34.010357 33.809810 33.621797 33.446568 33.284209 33.134658 32.997710 32.873040 32.760212 32.658701 32.567909 32.487182 32.415828 32.353130 32.298366 32.250814 32.209775 32.174566 32.144548 32.119109 32.097693 32.079774 32.064891 32.052608 32.042562 32.034399 32.027849 32.022633 32.018559 32.015409 32.013060 32.011339 32.010180 32.009439 32.009099 32.009032 32.009257 32.009657 32.010278 32.011005 32.011906 32.012862 32.013959 32.015074 32.016303 32.017519 32.018828 32.020096 32.021436 32.022715 32.024044 32.025293 32.026574 32.027760 32.028961 32.030058 32.031154 32.032141 32.033116 32.033981 32.034826 32.035565 32.036278 32.036893 32.037480 32.037979 32.038449 32.038843 32.039210 32.039512 32.039789 32.040013 32.040215 32.040374 32.040513 32.040618 32.040705 32.040764 32.040806 32.040825 32.040825 32.040806 32.040764 32.040705 32.040618 32.040513 32.040374 32.040215 32.040013 32.039789 32.039512 32.039210 32.038843 32.038449 32.037979 32.037480 32.036893 32.036278 32.035565 32.034826 32.033981 32.033115 32.032140 32.031153 32.030057 32.028960 32.027758 32.026571 32.025289 32.024038 32.022707 32.021425 32.020080 32.018805 32.017488 32.016259 32.015013 32.013876 32.012749 32.011753 32.010800 32.010005 32.009294 32.008778 32.008404 32.008280 32.008377 32.008812 32.009586 32.010828 32.012583 32.015004 32.018186 32.022320 32.027565 32.034164 32.042350 32.052435 32.064738 32.079650 32.097585 32.119023 32.144474 32.174507 32.209724 32.250775 32.298333 32.353105 32.415807 32.487166 32.567896 32.658691 32.760204 32.873034 32.997705 33.134654 33.284207 33.446566 33.621796 33.809809 34.010356 34.223022 34.447218 34.682186 34.927003 35.180590 35.441724 35.709057 35.981136 36.256425 36.533333
36.911111 36.611127 36.312897 36.018145 35.728534 35.445639 35.170920 34.905702 34.651153 34.408275 34.177888 33.960629 33.756949 33.567117 33.391230 33.229216 33.080857 32.945800 32.823571 32.713605 32.615250 32.527801 32.450505 32.382590 32.323269 32.271768 32.227319 32.189196 32.156693 32.129163 32.105985 32.086614 32.070523 32.057274 32.046435 32.037671 32.030636 32.025088 32.020754 32.017476 32.015033 32.013338 32.012208 32.011614 32.011398 32.011575 32.012000 32.012724 32.013605 32.014723 32.015932 32.017335 32.018778 32.020381 32.021983 32.023717 32.025414 32.027215 32.028948 32.030758 32.032474 32.034241 32.035891 32.037568 32.039113 32.040663 32.042070 32.043466 32.044715 32.045939 32.047019 32.048065 32.048975 32.049846 32.050592 32.051299 32.051896 32.052454 32.052918 32.053346 32.053697 32.054015 32.054269 32.054495 32.054670 32.054819 32.054928 32.055013 32.055065 32.055093 32.055093 32.055065 32.055013 32.054928 32.054819 32.054670 32.054495 32.054269 32.054015 32.053697 32.053346 32.052918 32.052454 32.051896 32.051299 32.050592 32.049846 32.048974 32.048065 32.047019 32.045939 32.044715 32.043465 32.042070 32.040662 32.039111 32.037566 32.035888 32.034236 32.032467 32.030749 32.028935 32.027197 32.025389 32.023683 32.021936 32.020316 32.018688 32.017213 32.015767 32.014502 32.013309 32.012331 32.011481 32.010895 32.010510 32.010464 32.010726 32.011439 32.012615 32.014415 32.016903 32.020271 32.024646 32.030267 32.037338 32.046161 32.057029 32.070325 32.086438 32.105845 32.129040 32.156596 32.189113 32.227254 32.271712 32.323227 32.382554 32.450478 32.527778 32.615233 32.713591 32.823561 32.945791 33.080851 33.229211 33.391226 33.567115 33.756947 33.960627 34.177887 34.408274 34.651153 34.905701 35.170920 35.445639 35.728534 36.018145 36.312897 36.611127 36.911111
37.288889 36.965829 36.644659 36.327233 36.015345 35.710689 35.414838 35.129218 34.855089 34.593528 34.345419 34.111448 33.892101 33.687668 33.498251 33.323776 33.164007 33.018562 32.886935 32.768512 32.662598 32.568426 32.485194 32.412062 32.348193 32.292741 32.244895 32.203857 32.168886 32.139263 32.114350 32.093525 32.076263 32.062046 32.050464 32.041096 32.033641 32.027761 32.023253 32.019844 32.017417 32.015745 32.014781 32.014331 32.014404 32.014822 32.015641 32.016686 32.018052 32.019556 32.021326 32.023169 32.025235 32.027319 32.029589 32.031831 32.034223 32.036545 32.038982 32.041311 32.043721 32.045989 32.048306 32.050456 32.052624 32.054607 32.056583 32.058365 32.060118 32.061678 32.063194 32.064524 32.065802 32.066907 32.067957 32.068851 32.069691 32.070395 32.071048 32.071588 32.072081 32.072480 32.072839 32.073122 32.073369 32.073556 32.073709 32.073815 32.073889 32.073923 32.073923 32.073889 32.073815 32.073709 32.073556 32.073369 32.073122 32.072839 32.072480 32.072081 32.071588 32.071048 32.070395 32.069691 32.068851 32.067957 32.066907 32.065802 32.064524 32.063194 32.061678 32.060118 32.058364 32.056582 32.054606 32.052622 32.050454 32.048303 32.045985 32.043714 32.041301 32.038969 32.036526 32.034197 32.031794 32.029538 32.027248 32.025138 32.023038 32.021149 32.019318 32.017733 32.016263 32.015083 32.014089 32.013449 32.013092 32.013185 32.013700 32.014813 32.016548 32.019106 32.022573 32.027191 32.033123 32.040667 32.050078 32.061731 32.075983 32.093299 32.114152 32.139106 32.168749 32.203750 32.244803 32.292670 32.348132 32.412016 32.485155 32.568397 32.662574 32.768494 32.886921 33.018552 33.163999 33.323770 33.498246 33.687664 33.892098 34.111446 34.345417 34.593527 34.855088 35.129217 35.414837 35.710688 36.015345 36.327233 36.644658 36.965829 37.288889
37.666667 37.320531 36.976420 36.636322 36.302155 35.975738 35.658755 35.352734 35.059025 34.778781 34.512950 34.262267 34.027253 33.808219 33.605274 33.418339 33.247160 33.091329 32.950303 32.823428 32.709952 32.609064 32.519894 32.441555 32.373135 32.313746 32.262502 32.218568 32.181127 32.149441 32.122789 32.100551 32.082114 32.066985 32.054658 32.044761 32.036883 32.030769 32.026083 32.022671 32.020255 32.018766 32.017964 32.017853 32.018211 32.019103 32.020312 32.021949 32.023793 32.025994 32.028317 32.030944 32.033622 32.036558 32.039485 32.042625 32.045699 32.048942 32.052066 32.055315 32.058399 32.061562 32.064521 32.067517 32.070282 32.073046 32.075560 32.078043 32.080270 32.082444 32.084367 32.086221 32.087837 32.089378 32.090702 32.091950 32.093006 32.093990 32.094810 32.095563 32.096180 32.096738 32.097186 32.097582 32.097890 32.098151 32.098343 32.098491 32.098582 32.098630 32.098630 32.098582 32.098491 32.098343 32.098151 32.097890 32.097582 32.097186 32.096738 32.096180 32.095563 32.094810 32.093990 32.093006 32.091950 32.090702 32.089378 32.087837 32.086221 32.084366 32.082444 32.080270 32.078043 32.075559 32.073045 32.070280 32.067515 32.064517 32.061557 32.058391 32.055305 32.052052 32.048922 32.045670 32.042585 32.039430 32.036483 32.033518 32.030803 32.028127 32.025738 32.023451 32.021496 32.019713 32.018318 32.017187 32.016525 32.016253 32.016575 32.017465 32.019140 32.021640 32.025211 32.029972 32.036218 32.044160 32.054163 32.066544 32.081756 32.100235 32.122536 32.149220 32.180952 32.218418 32.262385 32.313647 32.373058 32.441490 32.519845 32.609023 32.709922 32.823402 32.950285 33.091314 33.247149 33.418330 33.605268 33.808214 34.027250 34.262265 34.512948 34.778779 35.059023 35.352733 35.658754 35.975738 36.302155 36.636321 36.976420 37.320531 37.666667