# vtk DataFile Version 3.0
Steady-state temperature (Jacobi)
ASCII
DATASET STRUCTURED_POINTS
DIMENSIONS 181 181 1
ORIGIN 0.0 0.0 0.0
SPACING 0.05 0.05 1.0
POINT_DATA 32761
SCALARS Temperature float 1
LOOKUP_TABLE default
32.000000 32.000000 32.000000 32.000000 32.000000 32.000000 32.000000 32.000000
32.000000 32.000000 32.000000 32.000000 32.000000 32.000000 32.000000 32.000000
32.000000 32.000000 32.000000 32.000000 32.000000 32.000000 32.000000 32.000000
32.000000 32.000000 32.000000 32.000000 32.000000 32.000000 32.000000 32.000000
32.000000 32.000000 32.000000 32.000000 32.000000 32.000000 32.000000 32.000000
32.000000 32.000000 32.000000 32.000000 32.000000 32.000000 32.000000 32.000000
32.000000 32.000000 32.000000 32.000000 32.000000 32.000000 32.000000 32.000000
32.000000 32.000000 32.000000 32.000000 32.000000 32.000000 32.000000 32.000000
32.000000 32.000000 32.000000 32.000000 32.000000 32.000000 32.000000 32.000000
32.000000 32.000000 32.000000 32.000000 32.000000 32.000000 32.000000 32.000000
32.000000 32.000000 32.000000 32.000000 32.000000 32.000000 32.000000 32.000000
32.000000 32.000000 32.000000 32.000000 32.000000 32.000000 32.000000 32.000000
32.000000 32.000000 32.000000 32.000000 32.000000 32.000000 32.000000 32.000000
32.000000 32.000000 32.000000 32.000000 32.000000 32.000000 32.000000 32.000000
32.000000 32.000000 32.000000 32.000000 32.000000 32.000000 32.000000 32.000000
32.000000 32.000000 32.000000 32.000000 32.000000 32.000000 32.000000 32.000000
32.000000 32.000000 32.000000 32.000000 32.000000 32.000000 32.000000 32.000000
32.000000 32.000000 32.000000 32.000000 32.000000 32.000000 32.000000 32.000000
32.000000 32.000000 32.000000 32.000000 32.000000 32.000000 32.000000 32.000000
32.000000 32.000000 32.000000 32.000000 32.000000 32.000000 32.000000 32.000000
32.000000 32.000000 32.000000 32.000000 32.000000 32.000000 32.000000 32.000000
32.000000 32.000000 32.000000 32.000000 32.000000 32.000000 32.000000 32.000000
32.000000 32.000000 32.000000 32.000000 32.000000
32.377778 32.407947 32.438120 32.468303 32.498499 32.528714 32.558951 32.589215
32.619509 32.649838 32.680203 32.710609 32.741057 32.771551 32.802091 32.832680
32.863316 32.894001 32.924734 32.955515 32.986340 33.017209 33.048117 33.079061
33.110035 33.141037 33.172056 33.203089 33.234124 33.265157 33.296173 33.327167
33.358122 33.389031 33.419875 33.450646 33.481324 33.511898 33.542346 33.572656
33.602806 33.632781 33.662557 33.692119 33.721442 33.750509 33.779295 33.807782
33.835944 33.863763 33.891213 33.918274 33.944922 33.971138 33.996896 34.022177
34.046957 34.071219 34.094939 34.118099 34.140678 34.162660 34.184024 34.204756
34.224837 34.244253 34.262989 34.281032 34.298367 34.314984 34.330870 34.346017
34.360413 34.374052 34.386923 34.399022 34.410339 34.420872 34.430613 34.439559
34.447706 34.455050 34.461588 34.467317 34.472237 34.476344 34.479637 34.482117
34.483780 34.484628 34.484661 34.483877 34.482278 34.479864 34.476637 34.472596
34.467745 34.462085 34.455619 34.448348 34.440277 34.431409 34.421748 34.411298
34.400066 34.388057 34.375279 34.361736 34.347441 34.332398 34.316620 34.300116
34.282900 34.264980 34.246372 34.227089 34.207148 34.186561 34.165348 34.143523
34.121109 34.098119 34.074577 34.050500 34.025911 34.000829 33.975279 33.949278
33.922854 33.896023 33.868813 33.841243 33.813338 33.785118 33.756608 33.727825
33.698797 33.669540 33.640078 33.610427 33.580612 33.550646 33.520553 33.490345
33.460043 33.429660 33.399213 33.368713 33.338178 33.307616 33.277042 33.246464
33.215894 33.185337 33.154806 33.124305 33.093842 33.063419 33.033046 33.002722
32.972454 32.942240 32.912087 32.881991 32.851956 32.821979 32.792061 32.762199
32.732394 32.702640 32.672937 32.643280 32.613666 32.584091 32.554551 32.525041
32.495558 32.466094 32.436647 32.407210 32.377778
32.755556 32.815895 32.876245 32.936613 32.997008 33.057440 33.117918 33.178448
33.239041 33.299700 33.360436 33.421251 33.482154 33.543145 33.604231 33.665412
33.726692 33.788068 33.849542 33.911109 33.972770 34.034514 34.096341 34.158237
34.220199 34.282209 34.344262 34.406337 34.468425 34.530500 34.592552 34.654550
34.716481 34.778311 34.840021 34.901577 34.962956 35.024118 35.085039 35.145675
35.206000 35.265966 35.325545 35.384687 35.443359 35.501512 35.559111 35.616104
35.672456 35.728113 35.783040 35.837183 35.890505 35.942955 35.994496 36.045077
36.094663 36.143203 36.190666 36.237002 36.282182 36.326161 36.368909 36.410386
36.450566 36.489411 36.526898 36.562993 36.597677 36.630920 36.662705 36.693006
36.721809 36.749091 36.774842 36.799044 36.821686 36.842755 36.862243 36.880138
36.896435 36.911125 36.924203 36.935664 36.945505 36.953720 36.960309 36.965267
36.968595 36.970292 36.970356 36.968788 36.965590 36.960761 36.954305 36.946224
36.936520 36.925198 36.912262 36.897719 36.881573 36.863833 36.844506 36.823603
36.801133 36.777110 36.751544 36.724454 36.695852 36.665759 36.634192 36.601176
36.566727 36.530878 36.493647 36.455069 36.415168 36.373981 36.331535 36.287872
36.243020 36.197024 36.149917 36.101745 36.052544 36.002362 35.951235 35.899216
35.846339 35.792659 35.738213 35.683053 35.627216 35.570756 35.513708 35.456125
35.398042 35.339508 35.280558 35.221240 35.161584 35.101637 35.041426 34.980995
34.920369 34.859588 34.798673 34.737662 34.676571 34.615436 34.554270 34.493102
34.431945 34.370824 34.309747 34.248736 34.187796 34.126945 34.066186 34.005532
33.944985 33.884554 33.824237 33.764041 33.703962 33.644005 33.584163 33.524437
33.464820 33.405310 33.345898 33.286582 33.227350 33.168198 33.109115 33.050094
32.991123 32.932195 32.873297 32.814421 32.755556
33.133333 33.223849 33.314379 33.404938 33.495537 33.586193 33.676916 33.767720
33.858615 33.949615 34.040726 34.131961 34.223323 34.314825 34.406464 34.498252
34.590184 34.682267 34.774493 34.866866 34.959373 35.052015 35.144774 35.237647
35.330611 35.423660 35.516764 35.609912 35.703071 35.796224 35.889332 35.982374
36.075304 36.168096 36.260699 36.353084 36.445193 36.536990 36.628415 36.719427
36.809960 36.899970 36.989386 37.078161 37.166220 37.253513 37.339963 37.425517
37.510097 37.593647 37.676089 37.757367 37.837402 37.916139 37.993500 38.069431
38.143857 38.216725 38.287963 38.357521 38.425332 38.491350 38.555510 38.617770
38.678073 38.736381 38.792641 38.846820 38.898872 38.948767 38.996465 39.041943
39.085164 39.126110 39.164751 39.201071 39.235046 39.266663 39.295903 39.322756
39.347208 39.369251 39.388873 39.406071 39.420835 39.433162 39.443046 39.450486
39.455479 39.458024 39.458121 39.455769 39.450970 39.443725 39.434038 39.421912
39.407353 39.390365 39.370956 39.349132 39.324907 39.298286 39.269287 39.237918
39.204202 39.168149 39.129786 39.089129 39.046208 39.001044 38.953671 38.904116
38.852418 38.798608 38.742732 38.684825 38.624940 38.563114 38.499408 38.433862
38.366543 38.297496 38.226791 38.154477 38.080627 38.005294 37.928554 37.850462
37.771097 37.690513 37.608791 37.525987 37.442180 37.357425 37.271802 37.185364
37.098189 37.010327 36.921853 36.832816 36.743286 36.653308 36.562948 36.472247
36.381268 36.290045 36.198635 36.107070 36.015401 35.923653 35.831874 35.740082
35.648319 35.556601 35.464961 35.373412 35.281981 35.190675 35.099518 35.008512
34.917676 34.827006 34.736517 34.646204 34.556075 34.466122 34.376350 34.286746
34.197312 34.108035 34.018911 33.929926 33.841073 33.752337 33.663707 33.575167
33.486707 33.398308 33.309957 33.221637 33.133333
33.511111 33.631810 33.752529 33.873285 33.994097 34.114983 34.235961 34.357046
34.478257 34.599604 34.721106 34.842768 34.964608 35.086628 35.208842 35.331248
35.453856 35.576659 35.699664 35.822858 35.946243 36.069800 36.193527 36.317397
36.441405 36.565514 36.689715 36.813964 36.938244 37.062506 37.186725 37.310844
37.434832 37.558625 37.682185 37.805441 37.928348 38.050827 38.172827 38.294264
38.415081 38.535186 38.654518 38.772981 38.890507 39.006996 39.122379 39.236551
39.349441 39.460942 39.570981 39.679452 39.786280 39.891360 39.994619 40.095955
40.195295 40.292542 40.387627 40.480455 40.570963 40.659062 40.744695 40.827778
40.908259 40.986064 41.061146 41.133438 41.202900 41.269472 41.333121 41.393796
41.451467 41.506093 41.557649 41.606100 41.651428 41.693604 41.732612 41.768432
41.801051 41.830452 41.856628 41.879565 41.899258 41.915699 41.928884 41.938807
41.945466 41.948861 41.948989 41.945852 41.939450 41.929787 41.916866 41.900693
41.881272 41.858613 41.832722 41.803614 41.771295 41.735787 41.697098 41.655254
41.610270 41.562175 41.510989 41.456749 41.399478 41.339220 41.276006 41.209886
41.140896 41.069095 40.994526 40.917255 40.837330 40.754827 40.669799 40.582329
40.492476 40.400330 40.305955 40.209447 40.110874 40.010336 39.907905 39.803685
39.697750 39.590205 39.481126 39.370619 39.258759 39.145652 39.031372 38.916023
38.799675 38.682430 38.564355 38.445546 38.326066 38.206008 38.085428 37.964411
37.843010 37.721303 37.599335 37.477178 37.354871 37.232477 37.110029 36.987583
36.865164 36.742822 36.620575 36.498464 36.376501 36.254721 36.133129 36.011754
35.890596 35.769674 35.648985 35.528543 35.408339 35.288381 35.168656 35.049168
34.929899 34.810848 34.691997 34.573337 34.454850 34.336523 34.218336 34.100274
33.982314 33.864439 33.746627 33.628859 33.511111
33.888889 34.039781 34.190697 34.341661 34.492695 34.643823 34.795066 34.946447
35.097982 35.249695 35.401596 35.553708 35.706037 35.858602 36.011403 36.164456
36.317755 36.471313 36.625115 36.779169 36.933454 37.087971 37.242691 37.397610
37.552689 37.707918 37.863248 38.018661 38.174101 38.329541 38.484914 38.640186
38.795282 38.950158 39.104728 39.258943 39.412706 39.565960 39.718600 39.870560
40.021729 40.172032 40.321352 40.469607 40.616675 40.762469 40.906861 41.049762
41.191039 41.330601 41.468315 41.604086 41.737783 41.869313 41.998545 42.125387
42.249713 42.371435 42.490433 42.606622 42.719888 42.830154 42.937315 43.041298
43.142006 43.239378 43.333324 43.423790 43.510698 43.594001 43.673630 43.749547
43.821693 43.890036 43.954527 44.015140 44.071836 44.124594 44.173383 44.218187
44.258981 44.295755 44.328489 44.357177 44.381803 44.402365 44.418851 44.431261
44.439589 44.443833 44.443993 44.440069 44.432064 44.419979 44.403822 44.383594
44.359308 44.330967 44.298589 44.262180 44.221762 44.177345 44.128956 44.076612
44.020345 43.960177 43.896148 43.828286 43.756641 43.681245 43.602158 43.519420
43.433101 43.343249 43.249943 43.153239 43.053226 42.949967 42.843563 42.734083
42.621636 42.506299 42.388189 42.267389 42.144022 42.018177 41.889981 41.759526
41.626945 41.492330 41.355816 41.217497 41.077507 40.935939 40.792925 40.648556
40.502961 40.356226 40.208478 40.059795 39.910298 39.760061 39.609197 39.457771
39.305889 39.153610 39.001030 38.848200 38.695205 38.542090 38.388930 38.235760
38.082647 37.929618 37.776729 37.623999 37.471476 37.319170 37.167120 37.015330
36.863830 36.712616 36.561710 36.411104 36.260811 36.110817 35.961129 35.811729
35.662616 35.513769 35.365182 35.216830 35.068701 34.920769 34.773019 34.625420
34.477955 34.330594 34.183315 34.036088 33.888889
34.266667 34.447763 34.628889 34.810071 34.991341 35.172723 35.354247 35.535935
35.717815 35.899904 36.082230 36.264804 36.447651 36.630775 36.814197 36.997915
37.181946 37.366278 37.550924 37.735862 37.921099 38.106605 38.292379 38.478379
38.664598 38.850984 39.037518 39.224141 39.410823 39.597492 39.784110 39.970594
40.156895 40.342918 40.528605 40.713849 40.898583 41.082688 41.266087 41.448653
41.630299 41.810888 41.990326 42.168467 42.345211 42.520405 42.693943 42.865669
43.035472 43.203192 43.368717 43.531887 43.692588 43.850661 44.005996 44.158436
44.307873 44.454158 44.597186 44.736816 44.872951 45.005458 45.134246 45.259195
45.380222 45.497218 45.610110 45.718799 45.823225 45.923299 46.018970 46.110163
46.196835 46.278922 46.356390 46.429186 46.497284 46.560641 46.619236 46.673036
46.722026 46.766181 46.805489 46.839931 46.869502 46.894187 46.913982 46.928880
46.938878 46.943973 46.944165 46.939454 46.929841 46.915333 46.895931 46.871646
46.842483 46.808457 46.769575 46.725858 46.677318 46.623982 46.565866 46.503005
46.435421 46.363159 46.286244 46.204734 46.118662 46.028094 45.933073 45.833676
45.729957 45.622004 45.509880 45.393685 45.273491 45.149412 45.021529 44.889967
44.754814 44.616207 44.474243 44.329065 44.180779 44.029535 43.875443 43.718659
43.559296 43.397515 43.233429 43.067200 42.898942 42.728815 42.556930 42.383446
42.208470 42.032155 41.854601 41.675958 41.496317 41.315819 41.134550 40.952639
40.770163 40.587242 40.403943 40.220375 40.036594 39.852700 39.668737 39.484792
39.300902 39.117142 38.933536 38.750149 38.566998 38.384134 38.201565 38.019333
37.837437 37.655907 37.474738 37.293949 37.113526 36.933481 36.753795 36.574471
36.395484 36.216831 36.038483 35.860429 35.682638 35.505093 35.327761 35.150620
34.973635 34.796780 34.620021 34.443328 34.266667
34.644444 34.855759 35.067107 35.278524 35.490042 35.701696 35.913513 36.125529
36.337767 36.550260 36.763024 36.976092 37.189472 37.403193 37.617255 37.831682
38.046466 38.261624 38.477139 38.693021 38.909242 39.125804 39.342667 39.559825
39.777226 39.994855 40.212644 40.430570 40.648552 40.866553 41.084483 41.302290
41.519871 41.737163 41.954048 42.170453 42.386246 42.601343 42.815598 43.028917
43.241144 43.452173 43.661838 43.870024 44.076557 44.281314 44.484115 44.684831
44.883277 45.079321 45.272776 45.463508 45.651329 45.836106 46.017657 46.195849
46.370504 46.541498 46.708658 46.871867 47.030963 47.185837 47.336338 47.482367
47.623788 47.760511 47.892413 48.019417 48.141414 48.258339 48.370096 48.476632
48.577866 48.673753 48.764226 48.849251 48.928772 49.002763 49.071180 49.134005
49.191201 49.242757 49.288646 49.328859 49.363377 49.392196 49.415303 49.432694
49.444364 49.450312 49.450535 49.445034 49.433814 49.416875 49.394227 49.365874
49.331829 49.292100 49.246708 49.195661 49.138989 49.076705 49.008846 48.935432
48.856510 48.772107 48.682280 48.587064 48.486529 48.380721 48.269722 48.153587
48.032413 47.906268 47.775261 47.639471 47.499023 47.354007 47.204562 47.050789
46.892839 46.730822 46.564904 46.395201 46.221888 46.045091 45.864990 45.681717
45.495457 45.306345 45.114570 44.920265 44.723620 44.524769 44.323897 44.121135
43.916664 43.710607 43.503142 43.294382 43.084495 42.873588 42.661818 42.449281
42.236122 42.022427 41.808329 41.593900 41.379261 41.164473 40.949643 40.734820
40.520096 40.305508 40.091137 39.877008 39.663186 39.449687 39.236564 39.023821
38.811500 38.599596 38.388138 38.177114 37.966541 37.756400 37.546700 37.337413
37.128540 36.920047 36.711927 36.504144 36.296682 36.089501 35.882579 35.675875
35.469362 35.262998 35.056750 34.850578 34.644444
35.022222 35.263769 35.505357 35.747022 35.988807 36.230745 36.472879 36.715238
36.957861 37.200772 37.444008 37.687586 37.931540 38.175877 38.420626 38.665784
38.911377 39.157388 39.403836 39.650695 39.897972 40.145629 40.393665 40.642027
40.890704 41.139629 41.388777 41.638069 41.887466 42.136872 42.386238 42.635451
42.884447 43.133100 43.381331 43.628997 43.876008 44.122205 44.367484 44.611674
44.854658 45.096251 45.336326 45.574688 45.811199 46.045655 46.277911 46.507756
46.735040 46.959547 47.181125 47.399556 47.614687 47.826304 48.034254 48.238328
48.438379 48.634204 48.825663 49.012564 49.194777 49.372121 49.544477 49.711680
49.873622 50.030153 50.181178 50.326566 50.466234 50.600067 50.727995 50.849920
50.965786 51.075510 51.179046 51.276327 51.367318 51.451964 51.530240 51.602103
51.667534 51.726500 51.778991 51.824980 51.864461 51.897417 51.923843 51.943730
51.957076 51.963876 51.964130 51.957839 51.945006 51.925635 51.899731 51.867306
51.828365 51.782928 51.731004 51.672618 51.607784 51.536538 51.458899 51.374912
51.284604 51.188032 51.085232 50.976276 50.861207 50.740112 50.613049 50.480119
50.341391 50.196983 50.046979 49.891514 49.730683 49.564638 49.393488 49.217401
49.036497 48.850959 48.660918 48.466568 48.268051 48.065571 47.859277 47.649379
47.436032 47.219451 46.999792 46.777273 46.552048 46.324334 46.094282 45.862107
45.627951 45.392024 45.154461 44.915461 44.675151 44.433719 44.191279 43.948008
43.704007 43.459438 43.214392 42.969012 42.723377 42.477616 42.231792 41.986018
41.740345 41.494869 41.249627 41.004702 40.760116 40.515937 40.272176 40.028885
39.786065 39.543755 39.301944 39.060660 38.819881 38.579624 38.339861 38.100596
37.861794 37.623449 37.385523 37.148000 36.910837 36.674010 36.437475 36.201200
35.965139 35.729256 35.493503 35.257841 35.022222
35.400000 35.671797 35.943638 36.215572 36.487638 36.759886 37.032350 37.305079
37.578103 37.851466 38.125191 38.399321 38.673867 38.948869 39.224328 39.500276
39.776704 40.053637 40.331051 40.608963 40.887337 41.166178 41.445435 41.725101
42.005111 42.285444 42.566018 42.846799 43.127688 43.408636 43.689526 43.970294
44.250805 44.530981 44.810667 45.089769 45.368118 45.645602 45.922035 46.197293
46.471173 46.743537 47.014170 47.282922 47.549565 47.813939 48.075808 48.335004
48.591286 48.844479 49.094340 49.340692 49.583291 49.821962 50.056465 50.286629
50.512220 50.733074 50.948968 51.159747 51.365202 51.565187 51.759511 51.948042
52.130604 52.307082 52.477317 52.641209 52.798620 52.949464 53.093622 53.231025
53.361570 53.485202 53.601838 53.711434 53.813921 53.909269 53.997422 54.078358
54.152036 54.218440 54.277539 54.329324 54.373771 54.410877 54.440625 54.463015
54.478037 54.485692 54.485977 54.478893 54.464445 54.442635 54.413472 54.376962
54.333121 54.281955 54.223491 54.157738 54.084731 54.004486 53.917048 53.822440
53.720720 53.611920 53.496112 53.373340 53.243691 53.107221 52.964035 52.814204
52.657850 52.495059 52.325973 52.150693 51.969380 51.782150 51.589183 51.390610
51.186628 50.977381 50.763082 50.543887 50.320021 50.091650 49.859009 49.622271
49.381679 49.137408 48.889706 48.638748 48.384783 48.127983 47.868594 47.606785
47.342793 47.076779 46.808973 46.539525 46.268654 45.996497 45.723260 45.449066
45.174105 44.898486 44.622383 44.345889 44.069160 43.792275 43.515370 43.238508
42.961810 42.685321 42.409143 42.133309 41.857904 41.582944 41.308498 41.034570
40.761212 40.488418 40.216223 39.944609 39.673600 39.403168 39.133322 38.864027
38.595281 38.327042 38.059297 37.791998 37.525123 37.258622 36.992463 36.726593
36.460974 36.195553 35.930285 35.665117 35.400000
35.777778 36.079841 36.381957 36.684174 36.986545 37.289116 37.591940 37.895055
38.198513 38.502345 38.806601 39.111301 39.416491 39.722180 40.028408 40.335173
40.642506 40.950393 41.258854 41.567860 41.877423 42.187496 42.498079 42.809107
43.120568 43.432378 43.744509 44.056861 44.369388 44.681970 44.994545 45.306973
45.619175 45.930990 46.242322 46.552990 46.862880 47.171793 47.479597 47.786075
48.091079 48.394377 48.695806 48.995118 49.292138 49.586607 49.878340 50.167069
50.452600 50.734663 51.013058 51.287512 51.557826 51.823729 52.085025 52.341449
52.592811 52.838854 53.079400 53.314206 53.543102 53.765865 53.982340 54.192320
54.395667 54.592195 54.781785 54.964270 55.139549 55.307479 55.467973 55.620912
55.766225 55.903812 56.033619 56.155563 56.269604 56.375677 56.473752 56.563778
56.645737 56.719588 56.785320 56.842906 56.892337 56.933595 56.966676 56.991569
57.008272 57.016782 57.017097 57.009220 56.993152 56.968901 56.936468 56.895870
56.847110 56.790211 56.725181 56.652051 56.570836 56.481576 56.384293 56.279040
56.165849 56.044788 55.915898 55.779266 55.634946 55.483043 55.323626 55.156821
54.982714 54.801452 54.613137 54.417938 54.215977 54.007443 53.792474 53.571280
53.344018 53.110914 52.872139 52.627938 52.378492 52.124060 51.864832 51.601077
51.332992 51.060851 50.784853 50.505275 50.222316 49.936250 49.647273 49.355653
49.061577 48.765308 48.467019 48.166963 47.865300 47.562268 47.258014 46.952758
46.646631 46.339834 46.032483 45.724760 45.416760 45.108647 44.800499 44.492459
44.184587 43.877006 43.569760 43.262950 42.956605 42.650808 42.345571 42.040959
41.736971 41.433654 41.130993 40.829020 40.527709 40.227077 39.927088 39.627745
39.329004 39.030855 38.733248 38.436161 38.139539 37.843352 37.547541 37.252066
36.956866 36.661896 36.367093 36.072407 35.777778
36.155556 36.487905 36.820311 37.152834 37.485526 37.818448 38.151646 38.485181
38.819090 39.153432 39.488237 39.823557 40.159411 40.495847 40.832871 41.170522
41.508794 41.847716 42.187264 42.527459 42.868260 43.209673 43.551640 43.894154
44.237134 44.580560 44.924331 45.268407 45.612667 45.957053 46.301422 46.645697
46.989712 47.333370 47.676485 48.018937 48.360520 48.701096 49.040435 49.378382
49.714688 50.049179 50.381591 50.711733 51.039326 51.364168 51.685966 52.004509
52.319496 52.630709 52.937844 53.240679 53.538912 53.832320 54.120605 54.403552
54.680870 54.952353 55.217725 55.476790 55.729290 55.975044 56.213813 56.445435
56.669693 56.886445 57.095496 57.296725 57.489961 57.675104 57.852008 58.020589
58.180727 58.332356 58.475376 58.609739 58.735364 58.852217 58.960234 59.059392
59.149643 59.230972 59.303345 59.366752 59.421171 59.466595 59.503010 59.530414
59.548799 59.558166 59.558511 59.549838 59.532149 59.505447 59.469743 59.425041
59.371359 59.308703 59.237101 59.156562 59.067126 58.968808 58.861660 58.745707
58.621015 58.487621 58.345607 58.195026 58.035979 57.868534 57.692815 57.508907
57.316958 57.117072 56.909421 56.694130 56.471396 56.241361 56.004248 55.760219
55.509516 55.252321 54.988897 54.719439 54.444228 54.163471 53.877460 53.586414
53.290634 52.990341 52.685843 52.377362 52.065204 51.749590 51.430823 51.109115
50.784761 50.457964 50.129008 49.798081 49.465452 49.131295 48.795861 48.459307
48.121864 47.783669 47.444934 47.105776 46.766384 46.426855 46.087357 45.747966
45.408829 45.070000 44.731604 44.393679 44.056328 43.719569 43.383485 43.048079
42.713414 42.379478 42.046314 41.713898 41.382257 41.051354 40.721199 40.391747
40.062992 39.734883 39.407399 39.080483 38.754103 38.428196 38.102722 37.777614
37.452823 37.128281 36.803933 36.479712 36.155556
36.533333 36.895987 37.258705 37.621550 37.984589 38.347877 38.711482 39.075451
39.439852 39.804721 40.170122 40.536083 40.902660 41.269868 41.637756 42.006326
42.375616 42.745612 43.116343 43.487774 43.859922 44.232734 44.606211 44.980279
45.354922 45.730045 46.105615 46.481512 46.857683 47.233984 47.610344 47.986592
48.362635 48.738280 49.113409 49.487806 49.861331 50.233745 50.604885 50.974490
51.342378 51.708265 52.071953 52.433139 52.791608 53.147044 53.499218 53.847802
54.192557 54.533151 54.869338 55.200783 55.527239 55.848375 56.163947 56.473631
56.777190 57.074315 57.364780 57.648292 57.924641 58.193555 58.454844 58.708258
58.953629 59.190732 59.419422 59.639502 59.850848 60.053292 60.246732 60.431026
60.606093 60.771816 60.928135 61.074954 61.212229 61.339887 61.457897 61.566202
61.664784 61.753600 61.832640 61.901874 61.961296 62.010888 62.050648 62.080563
62.100635 62.110858 62.111233 62.101763 62.082447 62.053295 62.014308 61.965500
61.906877 61.838460 61.760257 61.672301 61.574605 61.467213 61.350148 61.223469
61.087208 60.941443 60.786220 60.621637 60.447756 60.264700 60.072549 59.871451
59.661506 59.442890 59.215725 58.980214 58.736503 58.484820 58.225335 57.958302
57.683911 57.402439 57.114096 56.819181 56.517918 56.210622 55.897531 55.578971
55.255188 54.926517 54.593206 54.255593 53.913923 53.568534 53.219666 52.867649
52.512713 52.155177 51.795257 51.433258 51.069381 50.703911 50.337030 49.969004
49.599994 49.230243 48.859890 48.489155 48.118155 47.747085 47.376040 47.005189
46.634605 46.264435 45.894728 45.525608 45.157106 44.789318 44.422260 44.056005
43.690551 43.325952 42.962188 42.599295 42.237239 41.876038 41.515646 41.156064
40.797237 40.439150 40.081741 39.724982 39.368803 39.013166 38.657997 38.303246
37.948838 37.594715 37.240802 36.887032 36.533333
36.911111 37.304088 37.697136 38.090327 38.483727 38.877412 39.271438 39.665880
40.060787 40.456230 40.852246 41.248904 41.646226 42.044274 42.443056 42.842623
43.242970 43.644134 44.046092 44.448869 44.852420 45.256757 45.661811 46.067578
46.473966 46.880950 47.288415 47.696315 48.104509 48.512929 48.921408 49.329853
49.738072 50.145946 50.553256 50.959860 51.365512 51.770045 52.173187 52.574749
52.974435 53.372034 53.767227 54.159785 54.549371 54.935738 55.318536 55.697504
56.072281 56.442600 56.808092 57.168488 57.523419 57.872616 58.215717 58.552458
58.882491 59.205560 59.521334 59.829575 60.129972 60.422305 60.706289 60.981728
61.248364 61.506025 61.754483 61.993592 62.223154 62.443050 62.653111 62.853242
63.043303 63.223221 63.392884 63.552239 63.701196 63.839720 63.967742 64.085240
64.192163 64.288498 64.374209 64.449291 64.513720 64.567494 64.610597 64.643031
64.664789 64.675870 64.676275 64.666004 64.645063 64.613451 64.571180 64.518252
64.454686 64.380484 64.295676 64.200268 64.094301 63.977789 63.850787 63.713320
63.565458 63.407242 63.238762 63.060076 62.871298 62.672504 62.463837 62.245395
62.017350 61.779822 61.533016 61.277076 61.012237 60.738671 60.456640 60.166341
59.868065 59.562032 59.248557 58.927879 58.600334 58.266178 57.925764 57.579356
57.227321 56.869929 56.507552 56.140461 55.769027 55.393519 55.014303 54.631638
54.245880 53.857274 53.466164 53.072776 52.677436 52.280352 51.881825 51.482044
51.081285 50.679712 50.277578 49.875022 49.472268 49.069432 48.666711 48.264195
47.862055 47.460358 47.059247 46.658767 46.259034 45.860072 45.461974 45.064742
44.668446 44.273072 43.878667 43.485199 43.092697 42.701115 42.310461 41.920680
41.531762 41.143641 40.756292 40.369643 39.983655 39.598250 39.213376 38.828953
38.444919 38.061191 37.677701 37.294366 36.911111
37.288889 37.712207 38.135605 38.559158 38.982947 39.407041 39.831523 40.256452
40.681909 41.107942 41.534627 41.962001 42.390134 42.819047 43.248800 43.679399
44.110893 44.543268 44.976562 45.410738 45.845818 46.281744 46.718521 47.156065
47.594362 48.033301 48.472847 48.912863 49.353288 49.793957 50.234785 50.675578
51.116223 51.556497 51.996262 52.435264 52.873337 53.310200 53.745659 54.179407
54.611225 55.040780 55.467829 55.892018 56.313084 56.730652 57.144446 57.554075
57.959250 58.359573 58.754747 59.144372 59.528148 59.905678 60.276667 60.640727
60.997574 61.346834 61.688238 62.021435 62.346175 62.662132 62.969079 63.266723
63.554862 63.833234 64.101667 64.359933 64.607888 64.845337 65.072166 65.288212
65.493386 65.687556 65.870658 66.042587 66.203299 66.352713 66.490801 66.617505
66.732807 66.836667 66.929077 67.010008 67.079460 67.137413 67.183871 67.218822
67.242269 67.254208 67.254642 67.243571 67.220997 67.186927 67.141362 67.084315
67.015786 66.935799 66.844357 66.741492 66.627214 66.501569 66.364574 66.216294
66.056758 65.886051 65.704219 65.511372 65.307575 65.092966 64.867635 64.631748
64.385423 64.128859 63.862200 63.585680 63.299472 63.003844 62.698997 62.385230
62.062772 61.731951 61.393020 61.046334 60.692165 60.330888 59.962791 59.588265
59.207606 58.821216 58.429395 58.032547 57.630971 57.225069 56.815131 56.401550
55.984604 55.564674 55.142019 54.717001 54.289861 53.860936 53.430445 52.998701
52.565895 52.132314 51.698122 51.263576 50.828814 50.394064 49.959435 49.525126
49.091221 48.657888 48.225185 47.793251 47.362122 46.931909 46.502624 46.074353
45.647088 45.220890 44.795732 44.371652 43.948608 43.526617 43.105622 42.685620
42.266544 41.848373 41.431031 41.014481 40.598640 40.183457 39.768845 39.354740
38.941054 38.527713 38.114626 37.701715 37.288889
37.666667 38.120345 38.574108 39.028046 39.482237 39.936772 40.391722 40.847177
41.303197 41.759869 42.217241 42.675393 43.134358 43.594210 44.054964 44.516683
44.979363 45.443054 45.907732 46.373430 46.840100 47.307760 47.776334 48.245820
48.716118 49.187199 49.658936 50.131277 50.604062 51.077214 51.550542 52.023939
52.497184 52.970141 53.442555 53.914262 54.384973 54.854496 55.322511 55.788796
56.253004 56.714886 57.174067 57.630273 58.083108 58.532278 58.977367 59.418065
59.853944 60.284682 60.709845 61.129105 61.542028 61.948288 62.347459 62.739220
63.123160 63.498973 63.866266 64.224755 64.574073 64.913959 65.244079 65.564201
65.874024 66.173347 66.461906 66.739534 67.006003 67.261178 67.504869 67.736970
67.957327 68.165860 68.362449 68.547038 68.719534 68.879902 69.028073 69.164027
69.287716 69.399131 69.498239 69.585040 69.659511 69.721657 69.771465 69.808939
69.834073 69.846872 69.847333 69.835460 69.811256 69.774720 69.725863 69.664682
69.591195 69.505401 69.407324 69.296969 69.174373 69.039547 68.892543 68.733384
68.562144 68.378859 68.183627 67.976506 67.757622 67.527056 67.284966 67.031461
66.766735 66.490926 66.204265 65.906923 65.599167 65.281201 64.953330 64.615786
64.268911 63.912965 63.548321 63.175264 62.794192 62.405410 62.009338 61.606294
61.196710 60.780914 60.359344 59.932328 59.500306 59.063599 58.622641 58.177742
57.729322 57.277676 56.823205 56.366182 55.906987 55.445868 54.983178 54.519138
54.054071 53.588170 53.121728 52.654907 52.187968 51.721042 51.254359 50.788021
50.322223 49.857041 49.392638 48.929063 48.466449 48.004818 47.544274 47.084818
46.626526 46.169378 45.713423 45.258623 44.805004 44.352512 43.901151 43.450853
43.001602 42.553319 42.105971 41.659470 41.213767 40.768767 40.324409 39.880594
39.437247 38.994271 38.551579 38.109075 37.666667
38.044444 38.528497 39.012646 39.496980 39.981600 40.466586 40.952039 41.438032
41.924660 42.411985 42.900098 43.389047 43.878914 44.369730 44.861568 45.354440
45.848407 46.343458 46.839639 47.336916 47.835316 48.334779 48.835313 49.336829
49.839312 50.342642 50.846779 51.351572 51.856952 52.362736 52.868825 53.375001
53.881134 54.386971 54.892350 55.396982 55.900674 56.403101 56.904040 57.403131
57.900119 58.394617 58.886339 59.374870 59.859901 60.340993 60.817816 61.289914
61.756940 62.218428 62.674023 63.123253 63.565760 64.001078 64.428853 64.848629
65.260065 65.662724 66.056285 66.440336 66.814579 67.178638 67.532243 67.875054
68.206836 68.527288 68.836211 69.133346 69.418529 69.691543 69.952260 70.200501
70.436170 70.659126 70.869301 71.066588 71.250942 71.422284 71.580591 71.725804