# vtk DataFile Version 3.0
Steady-state temperature (Jacobi)
ASCII
DATASET STRUCTURED_POINTS
DIMENSIONS 181 181 1
ORIGIN 0.0 0.0 0.0
SPACING 0.05 0.05 1.0
POINT_DATA 32761
SCALARS Temperature float 1
LOOKUP_TABLE default
32.000000 32.000000 32.000000 32.000000 32.000000 32.000000 32.000000 32.000000
32.000000 32.000000 32.000000 32.000000 32.000000 32.000000 32.000000 32.000000
32.000000 32.000000 32.000000 32.000000 32.000000 32.000000 32.000000 32.000000
32.000000 32.000000 32.000000 32.000000 32.000000 32.000000 32.000000 32.000000
32.000000 32.000000 32.000000 32.000000 32.000000 32.000000 32.000000 32.000000
32.000000 32.000000 32.000000 32.000000 32.000000 32.000000 32.000000 32.000000
32.000000 32.000000 32.000000 32.000000 32.000000 32.000000 32.000000 32.000000
32.000000 32.000000 32.000000 32.000000 32.000000 32.000000 32.000000 32.000000
32.000000 32.000000 32.000000 32.000000 32.000000 32.000000 32.000000 32.000000
32.000000 32.000000 32.000000 32.000000 32.000000 32.000000 32.000000 32.000000
32.000000 32.000000 32.000000 32.000000 32.000000 32.000000 32.000000 32.000000
32.000000 32.000000 32.000000 32.000000 32.000000 32.000000 32.000000 32.000000
32.000000 32.000000 32.000000 32.000000 32.000000 32.000000 32.000000 32.000000
32.000000 32.000000 32.000000 32.000000 32.000000 32.000000 32.000000 32.000000
32.000000 32.000000 32.000000 32.000000 32.000000 32.000000 32.000000 32.000000
32.000000 32.000000 32.000000 32.000000 32.000000 32.000000 32.000000 32.000000
32.000000 32.000000 32.000000 32.000000 32.000000 32.000000 32.000000 32.000000
32.000000 32.000000 32.000000 32.000000 32.000000 32.000000 32.000000 32.000000
32.000000 32.000000 32.000000 32.000000 32.000000 32.000000 32.000000 32.000000
32.000000 32.000000 32.000000 32.000000 32.000000 32.000000 32.000000 32.000000
32.000000 32.000000 32.000000 32.000000 32.000000 32.000000 32.000000 32.000000
32.000000 32.000000 32.000000 32.000000 32.000000 32.000000 32.000000 32.000000
32.000000 32.000000 32.000000 32.000000 32.000000
32.377778 32.380617 32.383487 32.386422 32.389448 32.392604 32.395910 32.399410
32.403116 32.407077 32.411299 32.415835 32.420682 32.425897 32.431470 32.437461
32.443852 32.450705 32.457995 32.465786 32.474044 32.482835 32.492117 32.501956
32.512304 32.523225 32.534665 32.546688 32.559229 32.572355 32.585992 32.600206
32.614916 32.630186 32.645928 32.662206 32.678923 32.696142 32.713761 32.731840
32.750272 32.769114 32.788254 32.807749 32.827481 32.847505 32.867701 32.888122
32.908645 32.929320 32.950024 32.970807 32.991544 33.012282 33.032899 33.053441
33.073787 33.093981 33.113907 33.133606 33.152966 33.172029 33.190686 33.208978
33.226802 33.244198 33.261069 33.277455 33.293264 33.308535 33.323184 33.337248
33.350651 33.363426 33.375508 33.386926 33.397621 33.407623 33.416879 33.425415
33.433188 33.440219 33.446474 33.451969 33.456678 33.460614 33.463758 33.466119
33.467685 33.468461 33.468443 33.467631 33.466028 33.463630 33.460449 33.456475
33.451727 33.446192 33.439897 33.432823 33.425007 33.416426 33.407124 33.397074
33.386329 33.374859 33.362724 33.349892 33.336431 33.322307 33.307595 33.292258
33.276381 33.259925 33.242981 33.225509 33.207606 33.189233 33.170493 33.151343
33.131894 33.112103 33.092084 33.071793 33.051348 33.030705 33.009985 32.989142
32.968299 32.947408 32.926595 32.905810 32.885176 32.864645 32.844338 32.824203
32.804361 32.784758 32.765511 32.746565 32.728032 32.709854 32.692140 32.674831
32.658028 32.641671 32.625855 32.610518 32.595750 32.581486 32.567808 32.554651
32.542090 32.530059 32.518624 32.507720 32.497406 32.487614 32.478397 32.469687
32.461529 32.453856 32.446705 32.440011 32.433801 32.428013 32.422668 32.417704
32.413134 32.408901 32.405010 32.401405 32.398085 32.394999 32.392137 32.389454
32.386933 32.384532 32.382230 32.379987 32.377778
32.755556 32.761256 32.767023 32.772911 32.778996 32.785321 32.791972 32.798979
32.806437 32.814363 32.822859 32.831929 32.841683 32.852108 32.863320 32.875293
32.888148 32.901843 32.916503 32.932071 32.948674 32.966239 32.984897 33.004557
33.025353 33.047178 33.070164 33.094189 33.119386 33.145616 33.173011 33.201416
33.230962 33.261480 33.293096 33.325628 33.359200 33.393615 33.428994 33.465129
33.502137 33.539799 33.578228 33.617195 33.656809 33.696836 33.737380 33.778199
33.819396 33.860725 33.902284 33.943827 33.985449 34.026904 34.068284 34.109345
34.150179 34.190545 34.230532 34.269908 34.308759 34.346862 34.384299 34.420860
34.456625 34.491393 34.525245 34.557992 34.589711 34.620229 34.649619 34.677724
34.704612 34.730142 34.754378 34.777193 34.798649 34.818633 34.837200 34.854256
34.869847 34.883895 34.896441 34.907420 34.916865 34.924729 34.931035 34.935752
34.938893 34.940443 34.940407 34.938784 34.935570 34.930780 34.924399 34.916459
34.906936 34.895877 34.883250 34.869118 34.853440 34.836296 34.817635 34.797555
34.776000 34.753081 34.728737 34.703096 34.676091 34.647865 34.618349 34.587700
34.555845 34.522957 34.488959 34.454039 34.418118 34.381395 34.343789 34.305514
34.266485 34.226926 34.186750 34.146191 34.105160 34.063896 34.022311 33.980646
33.938811 33.897053 33.855275 33.813727 33.772309 33.731268 33.690503 33.650255
33.610422 33.571238 33.532596 33.494725 33.457514 33.421181 33.385612 33.351016
33.317274 33.284583 33.252819 33.222169 33.192506 33.164000 33.136524 33.110233
33.084996 33.060956 33.037979 33.016192 32.995461 32.975897 32.957367 32.939966
32.923562 32.908232 32.893849 32.880474 32.867981 32.856416 32.845658 32.835738
32.826538 32.818076 32.810239 32.803029 32.796342 32.790166 32.784402 32.779027
32.773951 32.769136 32.764501 32.759998 32.755556
33.133333 33.141946 33.150649 33.159550 33.168723 33.178289 33.188304 33.198904
33.210124 33.222113 33.234886 33.248601 33.263255 33.279014 33.295853 33.313947
33.333247 33.353936 33.375941 33.399451 33.424369 33.450889 33.478889 33.508565
33.539771 33.572706 33.607199 33.643447 33.681257 33.720826 33.761935 33.804778
33.849116 33.895139 33.942584 33.991639 34.042020 34.093909 34.147003 34.201481
34.257021 34.313795 34.371468 34.430205 34.489658 34.549988 34.610836 34.672356
34.734184 34.796468 34.858839 34.921442 34.983906 35.046371 35.108470 35.170338
35.231615 35.292431 35.352435 35.411755 35.470051 35.527448 35.583620 35.638690
35.692348 35.744715 35.795499 35.844817 35.892398 35.938356 35.982441 36.024761
36.065090 36.103529 36.139877 36.174228 36.206403 36.236490 36.264332 36.290008
36.313386 36.334534 36.353343 36.369870 36.384032 36.395869 36.405323 36.412423
36.417133 36.419466 36.419412 36.416969 36.412150 36.404940 36.395374 36.383422
36.369145 36.352499 36.333567 36.312293 36.288785 36.262975 36.234994 36.204764
36.172439 36.137933 36.101424 36.062816 36.022313 35.979811 35.935538 35.889384
35.841599 35.792069 35.741066 35.688472 35.634578 35.579265 35.522842 35.465185
35.406622 35.347027 35.286741 35.225635 35.164062 35.101891 35.039483 34.976704
34.913921 34.850995 34.788297 34.725683 34.663524 34.601671 34.540491 34.479830
34.420048 34.360986 34.302994 34.245906 34.190061 34.135288 34.081909 34.029749
33.979112 33.929818 33.882154 33.835931 33.791419 33.748425 33.707196 33.667535
33.629668 33.593395 33.558919 33.526039 33.494932 33.465401 33.437596 33.411321
33.386704 33.363550 33.341963 33.321753 33.303000 33.285518 33.269365 33.254362
33.240543 33.227738 33.215959 33.205045 33.194986 33.185632 33.176954 33.168812
33.161158 33.153865 33.146867 33.140051 33.133333
33.511111 33.522701 33.534424 33.546389 33.558750 33.571594 33.585092 33.599306
33.614425 33.630485 33.647691 33.666049 33.685779 33.706859 33.729520 33.753711
33.779672 33.807322 33.836911 33.868323 33.901815 33.937242 33.974864 34.014502
34.056420 34.100407 34.146727 34.195138 34.245902 34.298744 34.353927 34.411142
34.470649 34.532110 34.595779 34.661289 34.728888 34.798184 34.869417 34.942170
35.016676 35.092496 35.169855 35.248297 35.328039 35.408607 35.490211 35.572369
35.655280 35.738455 35.822089 35.905687 35.989437 36.072848 36.156102 36.238712
36.320855 36.402055 36.482485 36.561681 36.639813 36.716435 36.791713 36.865222
36.937124 37.007017 37.075060 37.140878 37.204623 37.265949 37.325004 37.381469
37.435487 37.486770 37.535450 37.581274 37.624362 37.664492 37.701775 37.736019
37.767322 37.795525 37.820709 37.842748 37.861708 37.877492 37.890150 37.899617
37.905922 37.909034 37.908961 37.905705 37.899254 37.889640 37.876833 37.860896
37.841782 37.819584 37.794237 37.765867 37.734391 37.699968 37.662500 37.622178
37.578890 37.532860 37.483964 37.432458 37.378208 37.321500 37.262194 37.200607
37.136590 37.070490 37.002155 36.931959 36.859743 36.785910 36.710296 36.633329
36.554840 36.475278 36.394471 36.312886 36.230347 36.147334 36.063669 35.979839
35.895663 35.811634 35.727564 35.643950 35.560596 35.477996 35.395949 35.314939
35.234760 35.155886 35.078100 35.001863 34.926950 34.853804 34.782192 34.712536
34.644596 34.578768 34.514806 34.453081 34.393341 34.335927 34.280583 34.227621
34.176779 34.128340 34.082041 34.038131 33.996345 33.956904 33.919541 33.884445
33.851354 33.820421 33.791390 33.764384 33.739151 33.715783 33.694035 33.673970
33.655353 33.638217 33.622336 33.607716 33.594146 33.581601 33.569886 33.558951
33.548616 33.538805 33.529358 33.520174 33.511111
33.888889 33.903556 33.918375 33.933526 33.949133 33.965399 33.982418 34.000416
34.019455 34.039781 34.061423 34.084645 34.109439 34.136087 34.164545 34.195108
34.227693 34.262607 34.299728 34.339374 34.381381 34.426074 34.473250 34.523236
34.575791 34.631245 34.689313 34.750326 34.813960 34.880543 34.949712 35.021791
35.096378 35.173792 35.253594 35.336096 35.420824 35.508081 35.597362 35.688962
35.782345 35.877796 35.974755 36.073496 36.173438 36.274846 36.377122 36.480520
36.584431 36.689099 36.793910 36.899100 37.004052 37.108996 37.213318 37.317243
37.420165 37.522304 37.623070 37.722676 37.820553 37.916910 38.011201 38.103630
38.193680 38.281551 38.366757 38.449492 38.529306 38.606384 38.680314 38.751274
38.818889 38.883327 38.944253 39.001824 39.055744 39.106157 39.152806 39.195821
39.234984 39.270406 39.301911 39.329590 39.353307 39.373130 39.388962 39.400851
39.408738 39.412646 39.412555 39.408466 39.400398 39.388325 39.372307 39.352294
39.328384 39.300507 39.268798 39.233166 39.193788 39.150550 39.103669 39.053017
38.998848 38.941018 38.879824 38.815106 38.747201 38.675938 38.601695 38.524289
38.444137 38.361049 38.275478 38.187228 38.096786 38.003951 37.909242 37.812453
37.714131 37.614067 37.512830 37.410209 37.306793 37.202364 37.097528 36.992060
36.886577 36.780848 36.675493 36.570275 36.465812 36.361861 36.259032 36.157073
36.056584 35.957301 35.859811 35.763838 35.669948 35.577857 35.488104 35.400396
35.315243 35.232345 35.152179 35.074435 34.999559 34.927232 34.857864 34.791131
34.727404 34.666355 34.608317 34.552960 34.500576 34.450834 34.403988 34.359709
34.318209 34.279164 34.242746 34.208637 34.176971 34.147437 34.120130 34.094751
34.071358 34.049664 34.029690 34.011165 33.994075 33.978165 33.963389 33.949510
33.936450 33.923995 33.912035 33.900379 33.888889
34.266667 34.284520 34.302574 34.320994 34.340012 34.359760 34.380495 34.402313
34.425498 34.450105 34.476442 34.504521 34.534673 34.566865 34.601446 34.638340
34.677909 34.720031 34.765081 34.812890 34.863843 34.917721 34.974916 35.035163
35.098854 35.165677 35.236026 35.309539 35.386609 35.466826 35.550580 35.637412
35.727708 35.820962 35.917554 36.016934 36.119472 36.224579 36.332612 36.442947
36.555930 36.670902 36.788197 36.907130 37.028021 37.150162 37.273862 37.398395
37.524059 37.650116 37.776854 37.903531 38.030424 38.156795 38.282911 38.408042
38.532449 38.655417 38.777200 38.897103 39.015377 39.131353 39.245275 39.356507
39.465288 39.571017 39.673929 39.773462 39.869844 39.962556 40.051818 40.137156
40.218779 40.296261 40.369798 40.439011 40.504082 40.564681 40.620970 40.672668
40.719918 40.762486 40.800494 40.833753 40.862362 40.886180 40.905278 40.919562
40.929075 40.933770 40.933662 40.928750 40.919018 40.904514 40.885193 40.861148
40.832308 40.798811 40.760560 40.717741 40.670231 40.618266 40.561699 40.500814
40.435444 40.365921 40.292062 40.214245 40.132273 40.046573 39.956934 39.863831
39.767042 39.667086 39.563736 39.457553 39.348301 39.236583 39.122159 39.005665
38.886857 38.766404 38.644056 38.520511 38.395511 38.269775 38.143042 38.016043
37.888512 37.761189 37.633798 37.507082 37.380757 37.255560 37.131196 37.008395
36.886848 36.767267 36.649334 36.533737 36.420146 36.309223 36.200624 36.094978
35.991931 35.892077 35.795049 35.701402 35.610760 35.523634 35.439642 35.359250
35.282068 35.208518 35.138205 35.071504 35.008018 34.948073 34.891274 34.837900
34.787558 34.740477 34.696273 34.655127 34.616662 34.581014 34.547817 34.517160
34.488693 34.462461 34.438128 34.415698 34.394855 34.375560 34.357520 34.340657
34.324700 34.309535 34.294919 34.280701 34.266667
34.644444 34.665632 34.687034 34.708905 34.731419 34.754864 34.779372 34.805262
34.832623 34.861801 34.892836 34.926104 34.961593 34.999699 35.040363 35.083998
35.130492 35.180275 35.233178 35.289645 35.349453 35.413053 35.480165 35.551248
35.625964 35.704775 35.787285 35.873956 35.964336 36.058884 36.157092 36.259412
36.365283 36.475148 36.588394 36.705455 36.825668 36.949455 37.076107 37.206032
37.338483 37.473851 37.611353 37.751368 37.893080 38.036854 38.181853 38.328425
38.475717 38.624064 38.772605 38.921662 39.070372 39.219048 39.366831 39.514027
39.659790 39.804417 39.947085 40.088085 40.226620 40.362976 40.496391 40.627144
40.754514 40.878775 40.999249 41.116204 41.229011 41.337930 41.442382 41.542616
41.638111 41.729100 41.815117 41.896382 41.972482 42.043619 42.109438 42.170117
42.225358 42.275316 42.319745 42.358773 42.392213 42.420160 42.442480 42.459240
42.470358 42.475868 42.475742 42.469980 42.458608 42.441591 42.419011 42.390799
42.357090 42.317785 42.273072 42.222822 42.167280 42.106288 42.040147 41.968675
41.892227 41.810601 41.724209 41.632829 41.536928 41.436271 41.331380 41.222005
41.108724 40.991276 40.870291 40.745500 40.617582 40.486261 40.352260 40.215300
40.076142 39.934501 39.791175 39.645873 39.499420 39.351518 39.203015 39.053607
38.904154 38.754343 38.605041 38.455925 38.307862 38.160516 38.014744 37.870200
37.727723 37.586953 37.448708 37.312612 37.179454 37.048842 36.921532 36.797118
36.676314 36.558701 36.444949 36.334627 36.228356 36.125695 36.027214 35.932462
35.841958 35.755244 35.672784 35.594116 35.519649 35.448919 35.382279 35.319269
35.260184 35.204570 35.152665 35.104025 35.058832 35.016654 34.977619 34.941309
34.907802 34.876695 34.848017 34.821384 34.796777 34.773837 34.752497 34.732425
34.713508 34.695445 34.678081 34.661146 34.644444
35.022222 35.046895 35.071836 35.097272 35.123512 35.150734 35.179287 35.209298
35.241149 35.274916 35.311012 35.349456 35.390690 35.434674 35.481875 35.532193
35.586113 35.643477 35.704783 35.769811 35.839073 35.912281 35.989958 36.071752
36.158188 36.248850 36.344264 36.443949 36.548429 36.657157 36.770653 36.888306
37.010628 37.136948 37.267764 37.402350 37.541189 37.683500 37.829752 37.979115
38.132041 38.287655 38.446393 38.607341 38.770918 38.936180 39.103529 39.271996
39.441969 39.612464 39.783853 39.955148 40.126707 40.297544 40.468007 40.637120
40.805223 40.971360 41.135863 41.297804 41.457509 41.614087 41.767856 41.917968
42.064738 42.207365 42.346156 42.480366 42.610294 42.735251 42.855528 42.970496
43.080432 43.184772 43.283775 43.376942 43.464513 43.546053 43.621778 43.691318
43.754863 43.812105 43.863206 43.907919 43.946376 43.978391 44.004058 44.023256
44.036042 44.042353 44.042210 44.035610 44.022535 44.003045 43.977081 43.944764
43.906000 43.860971 43.809546 43.751970 43.688081 43.618186 43.542092 43.460171
43.372202 43.278623 43.179191 43.074406 42.964006 42.848555 42.727777 42.602298
42.471829 42.337056 42.197681 42.054449 41.907053 41.756293 41.601854 41.444586
41.284170 41.121496 40.956242 40.789334 40.620442 40.450523 40.279238 40.107565
39.935156 39.763001 39.590741 39.419370 39.248515 39.079164 38.910932 38.744792
38.580342 38.418532 38.258946 38.102503 37.948768 37.798624 37.651620 37.508595
37.369082 37.233870 37.102477 36.975640 36.852862 36.734824 36.621018 36.512064
36.407444 36.307719 36.212364 36.121875 36.035725 35.954346 35.877212 35.804691
35.736258 35.672220 35.612059 35.556017 35.503589 35.454954 35.409622 35.367711
35.328749 35.292796 35.259403 35.228571 35.199875 35.173265 35.148343 35.125006
35.102889 35.081839 35.061527 35.041751 35.022222
35.400000 35.428351 35.456982 35.486221 35.516297 35.547582 35.580251 35.614717
35.651094 35.689835 35.730993 35.775050 35.822000 35.872353 35.926034 35.983579
36.044845 36.110388 36.179995 36.254238 36.332832 36.416359 36.504462 36.597732
36.695737 36.799070 36.907228 37.020800 37.139210 37.263044 37.391654 37.525615
37.664211 37.808007 37.956215 38.109388 38.266677 38.428614 38.594293 38.764228
38.937458 39.114480 39.294285 39.477349 39.662626 39.850572 40.040108 40.231672
40.424165 40.618006 40.812085 41.006805 41.201052 41.395218 41.588196 41.780367
41.970643 42.159394 42.345559 42.529502 42.710200 42.888009 43.061950 43.232375
43.398358 43.560242 43.717160 43.869451 44.016308 44.158062 44.293973 44.424360
44.548553 44.666855 44.778669 44.884277 44.983154 45.075561 45.161044 45.239835
45.311553 45.376399 45.434063 45.484709 45.528099 45.564357 45.593315 45.615057
45.629480 45.636629 45.636468 45.628996 45.614248 45.592178 45.562887 45.526290
45.482555 45.431555 45.373527 45.308307 45.236202 45.157011 45.071115 44.978279
44.878956 44.772885 44.660589 44.541787 44.417072 44.286144 44.149668 44.007329
43.859862 43.706939 43.549365 43.386800 43.220113 43.048960 42.874266 42.695680
42.514183 42.329416 42.142406 41.952788 41.761625 41.568548 41.374645 41.179538
40.984336 40.788648 40.593593 40.398765 40.205282 40.012724 39.822196 39.633262
39.447006 39.262972 39.082216 38.904261 38.730125 38.559312 38.392792 38.230053
38.072011 37.918134 37.769282 37.624907 37.485805 37.351412 37.222461 37.098375
36.979818 36.866203 36.758123 36.654988 36.557317 36.464518 36.377040 36.294290
36.216646 36.143522 36.075222 36.011172 35.951606 35.895962 35.844407 35.796396
35.752029 35.710785 35.672696 35.637269 35.604474 35.573849 35.545301 35.518402
35.493005 35.468718 35.445338 35.422517 35.400000
35.777778 35.809998 35.842559 35.875745 35.909950 35.945398 35.982529 36.021507
36.062813 36.106546 36.153226 36.202881 36.256065 36.312736 36.373477 36.438169
36.507422 36.581039 36.659649 36.742979 36.831669 36.925367 37.024724 37.129306
37.239769 37.355597 37.477446 37.604719 37.738068 37.876814 38.021603 38.171676
38.327666 38.488737 38.655508 38.827071 39.004024 39.185391 39.371752 39.562066
39.756891 39.955132 40.157322 40.362318 40.570631 40.781079 40.994150 41.208633
41.424995 41.642006 41.860115 42.078083 42.296343 42.513659 42.730450 42.945497
43.159206 43.370382 43.579426 43.785178 43.988030 44.186871 44.382086 44.572617
44.758846 44.939777 45.115785 45.285942 45.450615 45.608950 45.761303 45.906896
46.046072 46.178131 46.303398 46.421253 46.531997 46.635092 46.730810 46.818693
46.898981 46.971295 47.035837 47.092306 47.140864 47.181286 47.213690 47.237926
47.254066 47.262035 47.261857 47.253530 47.237029 47.212430 47.179657 47.138860
47.089919 47.033057 46.968112 46.895384 46.814667 46.726341 46.630164 46.526593
46.415355 46.296986 46.171185 46.038570 45.898816 45.752621 45.599642 45.440657
45.275308 45.104449 44.927712 44.746026 44.559015 44.367674 44.171624 43.971921
43.768180 43.561514 43.351531 43.139392 42.924698 42.708645 42.490827 42.272467
42.053146 41.834104 41.614909 41.396804 41.179342 40.963757 40.749584 40.538040
40.328639 40.122570 39.919323 39.720050 39.524219 39.332934 39.145640 38.963386
38.785597 38.613259 38.445776 38.284067 38.127517 37.976975 37.831810 37.692794
37.559284 37.431976 37.310217 37.194623 37.084537 36.980495 36.881838 36.789023
36.701394 36.619328 36.542180 36.470245 36.402891 36.340338 36.281970 36.227931
36.177629 36.131133 36.087880 36.047865 36.010558 35.975887 35.943355 35.912826
35.883844 35.856209 35.829509 35.803487 35.777778
36.155556 36.191882 36.228557 36.265984 36.304449 36.344412 36.386091 36.429994
36.476269 36.525470 36.577670 36.633462 36.692842 36.756437 36.824164 36.896678
36.973812 37.056246 37.143728 37.236954 37.335586 37.440335 37.550772 37.667614
37.790344 37.919683 38.055022 38.197079 38.345155 38.499963 38.660713 38.828107
39.001271 39.180887 39.366000 39.557274 39.753674 39.955842 40.162670 40.374776
40.590986 40.811893 41.036263 41.264663 41.495813 41.730253 41.966664 42.205562
42.445601 42.687276 42.929223 43.171919 43.413998 43.655919 43.896327 44.135668
44.372609 44.607586 44.839300 45.068178 45.292970 45.514096 45.730362 45.942182
46.148428 46.349510 46.544372 46.733416 46.915667 47.091518 47.260075 47.421720
47.575645 47.722216 47.860712 47.991476 48.113878 48.228232 48.333995 48.431450
48.520142 48.600313 48.671595 48.734189 48.787808 48.832609 48.868386 48.895246
48.913065 48.921898 48.921702 48.912477 48.894263 48.867004 48.830823 48.785611
48.731571 48.668547 48.596823 48.516196 48.427035 48.329093 48.222826 48.107950
47.985006 47.853677 47.714594 47.567414 47.412853 47.250547 47.081302 46.904737
46.721743 46.531927 46.336265 46.134353 45.927247 45.714537 45.497353 45.275279
45.049510 44.819627 44.586881 44.350846 44.112822 43.872374 43.630837 43.387767
43.144523 42.900646 42.657506 42.414628 42.173381 41.933271 41.695651 41.460006
41.227663 40.998082 40.772553 40.550512 40.333201 40.120028 39.912179 39.709038
39.511725 39.319601 39.133712 38.953397 38.779628 38.611721 38.450567 38.295468
38.147229 38.005138 37.869914 37.740838 37.618540 37.502298 37.392652 37.288883
37.191442 37.099615 37.013767 36.933196 36.858179 36.788032 36.722949 36.662264
36.606092 36.553793 36.505402 36.460313 36.418483 36.379341 36.342772 36.308248
36.275582 36.244293 36.214127 36.184654 36.155556
36.533333 36.573995 36.615071 36.656910 36.699988 36.744582 36.791224 36.840119
36.891847 36.946535 37.004810 37.066715 37.132916 37.203372 37.278784 37.359019
37.444809 37.535927 37.633129 37.736094 37.845592 37.961209 38.083725 38.212626
38.348699 38.491332 38.641310 38.797922 38.961949 39.132580 39.310585 39.495060
39.686755 39.884675 40.089551 40.300297 40.517621 40.740353 40.969176 41.202843
41.442007 41.685355 41.933508 42.185095 42.440709 42.698929 42.960321 43.223426
43.488785 43.754917 44.022337 44.289554 44.557065 44.823383 45.088988 45.352410
45.614117 45.872673 46.128535 46.380312 46.628455 46.871629 47.110280 47.343143
47.570658 47.791637 48.006515 48.214187 48.415084 48.608189 48.793920 48.971358
49.140904 49.301734 49.454230 49.597664 49.732393 49.857785 49.974164 50.080993
50.178560 50.266420 50.344817 50.413399 50.472360 50.521438 50.560775 50.590196
50.609788 50.619464 50.619251 50.609149 50.589128 50.559273 50.519496 50.469971
50.410553 50.341504 50.262625 50.174270 50.076192 49.968834 49.851906 49.725946
49.590626 49.446578 49.293443 49.131949 48.961710 48.783553 48.597072 48.403189
48.201483 47.992969 47.777218 47.555335 47.326883 47.093051 46.853398 46.609190
46.359983 46.107110 45.850123 45.590413 45.327525 45.062896 44.796061 44.528491
44.259709 43.991205 43.722484 43.455042 43.188365 42.923940 42.661230 42.401699
42.144784 41.891914 41.642498 41.397917 41.157553 40.922728 40.692794 40.469007
40.250690 40.039025 39.833306 39.634635 39.442282 39.257260 39.078820 38.907884
38.743686 38.587053 38.437207 38.294880 38.159287 38.031063 37.909419 37.794896
37.686708 37.585299 37.489893 37.400838 37.317375 37.239758 37.167248 37.100008
37.037327 36.979279 36.925184 36.875032 36.828180 36.784535 36.743499 36.704900
36.668185 36.633110 36.599174 36.566063 36.533333
36.911111 36.956385 37.002077 37.048673 37.096516 37.146156 37.197859 37.252232
37.309457 37.370194 37.434537 37.503193 37.576165 37.654198 37.737203 37.825957
37.920273 38.020955 38.127716 38.241380 38.361556 38.489085 38.623468 38.765555
38.914740 39.071875 39.236247 39.408703 39.588424 39.776245 39.971244 40.174239
40.384205 40.601938 40.826315 41.058109 41.296099 41.541030 41.791596 42.048509
42.310383 42.577899 42.849599 43.126132 43.405981 43.689760 43.975909 44.265012
44.555472 44.847846 45.140521 45.434029 45.726754 46.019207 46.309785 46.598984
46.885228 47.169003 47.448774 47.725021 47.996265 48.262979 48.523757 48.779067
49.027581 49.269765 49.504381 49.731891 49.951149 50.162611 50.365233 50.559457
50.744344 50.920318 51.086545 51.243425 51.390227 51.527324 51.654087 51.770851
51.877090 51.973094 52.058436 52.133357 52.197529 52.251134 52.293941 52.326074
52.347393 52.357961 52.357731 52.346703 52.324921 52.292320 52.249039 52.194951
52.130286 52.054860 51.968998 51.872460 51.765669 51.648333 51.520978 51.383267
51.235826 51.078282 50.911365 50.734672 50.549037 50.354034 50.150602 49.938297
49.718163 49.489744 49.254183 49.011019 48.761491 48.505132 48.243270 47.975436
47.703040 47.425607 47.144618 46.859593 46.572071 46.281565 45.989656 45.695847
45.401747 45.106845 44.812762 44.518969 44.227084 43.936553 43.648979 43.363780
43.082526 42.804604 42.531541 42.262691 41.999523 41.741358 41.489595 41.243525
41.004468 40.771682 40.546403 40.327860 40.117195 39.913612 39.718157 39.530013
39.350122 39.177652 39.013443 38.856649 38.708007 38.566665 38.433253 38.306922
38.188197 38.076233 37.971452 37.873023 37.781267 37.695370 37.615552 37.541027
37.471918 37.407468 37.347707 37.291916 37.240034 37.191385 37.145823 37.102718
37.061842 37.022620 36.984746 36.947703 36.911111
37.288889 37.339038 37.389678 37.441225 37.494240 37.549058 37.606304 37.666227
37.729511 37.796313 37.867370 37.942742 38.023212 38.108742 38.200154 38.297304
38.401047 38.511133 38.628442 38.752614 38.884547 39.023767 39.171186 39.326216
39.489771 39.661147 39.841259 40.029286 40.226132 40.430864 40.644369 40.865602
41.095428 41.332693 41.578237 41.830798 42.091187 42.358045 42.632146 42.912041
43.198468 43.489897 43.787028 44.088260 44.394257 44.703359 45.016196 45.331064
45.648558 45.966948 46.286801 46.606373 46.926208 47.244567 47.561975 47.876715
48.189298 48.498046 48.803461 49.103920 49.399919 49.689904 49.974370 50.251843
50.522818 50.785914 51.041623 51.288665 51.527527 51.757038 51.977675 52.188379
52.389613 52.580431 52.761276 52.931314 53.090962 53.239497 53.377300 53.503759
53.619211 53.723152 53.815870 53.896965 53.966666 54.024677 54.071166 54.105935
54.129087 54.140524 54.140277 54.128348 54.104699 54.069428 54.022430 53.963902
53.893671 53.812035 53.718760 53.614245 53.498200 53.371127 53.232689 53.083494
52.923161 52.752409 52.570822 52.379232 52.177193 51.965653 51.744144 51.513728
51.273923 51.025903 50.769178 50.505029 50.232963 49.954360 49.668727 49.377538
49.080298 48.778563 48.471837 48.161745 47.847785 47.531640 47.212798 46.892981
46.571665 46.250594 45.929226 45.609311 45.290282 44.973880 44.659509 44.348882
44.041373 43.738650 43.440053 43.147194 42.859375 42.578140 42.302753 42.034678
41.773144 41.519524 41.273014 41.034891 40.804317 40.582467 40.368478 40.163416
39.966396 39.778375 39.598449 39.427464 39.264506 39.110307 38.963949 38.826050
38.695696 38.573393 38.458235 38.350618 38.249654 38.155627 38.067675 37.985975
37.909695 37.838911 37.772824 37.711414 37.653924 37.600238 37.549650 37.501951
37.456490 37.412973 37.370809 37.329623 37.288889
37.666667 37.722005 37.777834 37.834725 37.893083 37.953551 38.016446 38.082476
38.151862 38.225372 38.303128 38.385949 38.473852 38.567702 38.667407 38.773869
38.886883 39.007383 39.135048 39.270832 39.414296 39.566411 39.726614 39.895884
40.073535 40.260547 40.456109 40.661193 40.874866 41.098085 41.329793 41.570926
41.820310 42.078851 42.345260 42.620412 42.902905 43.193580 43.490932 43.795760
44.106466 44.423810 44.746109 45.074081 45.405974 45.742465 46.081746 46.424456
46.768748 47.115227 47.462024 47.809714 48.156424 48.502707 48.846705 49.188952
49.527624 49.863245 50.194041 50.520530 50.841007 51.155988 51.463849 51.765107
52.058235 52.343749 52.620229 52.888190 53.146327 53.395148 53.633467 53.861786
54.079037 54.285706 54.480850 54.664927 54.837117 54.997845 55.146410 55.283197
55.407619 55.520011 55.619900 55.707563 55.782636 55.845334 55.895396 55.932970
55.957901 55.970261 55.969998 55.957112 55.931652 55.893543 55.842938 55.779688
55.704051 55.615809 55.515327 55.402322 55.277267 55.139826 54.990582 54.829148
54.656226 54.471387 54.275450 54.067956 53.849844 53.620631 53.381380 53.131589
52.872446 52.603437 52.325870 52.039228 51.744932 51.442466 51.133356 50.817086
50.495281 50.167425 49.835224 49.498164 49.158018 48.814266 48.468734 48.120889
47.772594 47.423299 47.074882 46.726769 46.380837 46.036483 45.695562 45.357439
45.023931 44.694364 44.370500 44.051626 43.739436 43.433175 43.134455 42.842481
42.558771 42.282491 42.015060 41.755605 41.505436 41.263650 41.031442 40.807879
40.594042 40.388975 40.193638 40.007059 39.830077 39.661712 39.502679 39.351999
39.210266 39.076504 38.951189 38.833359 38.723371 38.620285 38.524342 38.434629
38.351279 38.273412 38.201051 38.133361 38.070260 38.010963 37.955287 37.902503
37.852334 37.804110 37.757467 37.711803 37.666667
38.044444 38.105264 38.166656 38.229105 38.293263 38.359524 38.428612 38.500823
38.576947 38.657176 38.742361 38.832582 38.928743 39.030812 39.139733 39.255358
39.378668 39.509390 39.648535 39.795703 39.951926 40.116675 40.290991 40.474217
40.667396 40.869739 41.082285 41.304109 41.536240 41.777621 42.029257 42.289966
42.560723 42.840218 43.129395 43.426821 43.733400 44.047585 44.370239 44.699706
45.036803 45.379781 45.729408 46.083853 46.443837 46.807460 47.175402 47.545708
47.919019 48.293346 48.669294 49.044863 49.420627 49.794591 50.167309 50.536812
50.903640 51.265870 51.624034 51.976274 52.323120 52.662798 52.995838 53.320563
53.637508 53.945106 54.243896 54.532429 54.811244 55.079020 55.336290 55.581865
55.816266 56.038433 56.248870 56.446648 56.632241 56.804848 56.964905 57.111735