<?xml version="1.0"?>
<VTKFile type="ImageData" version="0.1" byte_order="LittleEndian">
  <ImageData WholeExtent="0 180 0 180 0 0" Origin="0.0 0.0 0.0" Spacing="0.05 0.05 1">
    <Piece Extent="0 180 0 180 0 0">
      <PointData Scalars="Temperature">
        <DataArray type="Float32" Name="Temperature" format="ascii">
32.000000 32.000000 32.000000 32.000000 32.000000 32.000000 32.000000 32.000000 32.000000 32.000000 32.000000 32.000000 32.000000 32.000000 32.000000 32.000000 32.000000 32.000000 32.000000 32.000000 32.000000 32.000000 32.000000 32.000000 32.000000 32.000000 32.000000 32.000000 32.000000 32.000000 32.000000 32.000000 32.000000 32.000000 32.000000 32.000000 32.000000 32.000000 32.000000 32.000000 32.000000 32.000000 32.000000 32.000000 32.000000 32.000000 32.000000 32.000000 32.000000 32.000000 32.000000 32.000000 32.000000 32.000000 32.000000 32.000000 32.000000 32.000000 32.000000 32.000000 32.000000 32.000000 32.000000 32.000000 32.000000 32.000000 32.000000 32.000000 32.000000 32.000000 32.000000 32.000000 32.000000 32.000000 32.000000 32.000000 32.000000 32.000000 32.000000 32.000000 32.000000 32.000000 32.000000 32.000000 32.000000 32.000000 32.000000 32.000000 32.000000 32.000000 32.000000 32.000000 32.000000 32.000000 32.000000 32.000000 32.000000 32.000000 32.000000 32.000000 32.000000 32.000000 32.000000 32.000000 32.000000 32.000000 32.000000 32.000000 32.000000 32.000000 32.000000 32.000000 32.000000 32.000000 32.000000 32.000000 32.000000 32.000000 32.000000 32.000000 32.000000 32.000000 32.000000 32.000000 32.000000 32.000000 32.000000 32.000000 32.000000 32.000000 32.000000 32.000000 32.000000 32.000000 32.000000 32.000000 32.000000 32.000000 32.000000 32.000000 32.000000 32.000000 32.000000 32.000000 32.000000 32.000000 32.000000 32.000000 32.000000 32.000000 32.000000 32.000000 32.000000 32.000000 32.000000 32.000000 32.000000 32.000000 32.000000 32.000000 32.000000 32.000000 32.000000 32.000000 32.000000 32.000000 32.000000 32.000000 32.000000 32.000000 32.000000 32.000000 32.000000 32.000000 32.000000 32.000000 32.000000 32.000000 32.000000 32.000000 32.000000
32.377778 32.401409 32.425053 32.448722 32.472428 32.496184 32.520000 32.543890 32.567863 32.591932 32.616105 32.640395 32.664807 32.689356 32.714042 32.738881 32.763871 32.789026 32.814342 32.839833 32.865491 32.891330 32.917337 32.943527 32.969883 32.996419 33.023115 33.049982 33.076998 33.104172 33.131480 33.158927 33.186487 33.214164 33.241928 33.269780 33.297689 33.325653 33.353638 33.381642 33.409627 33.437589 33.465488 33.493318 33.521039 33.548643 33.576086 33.603362 33.630425 33.657267 33.683843 33.710143 33.736123 33.761773 33.787048 33.811939 33.836402 33.860427 33.883973 33.907030 33.929558 33.951549 33.972965 33.993798 34.014013 34.033603 34.052537 34.070807 34.088385 34.105267 34.121425 34.136857 34.151539 34.165468 34.178624 34.191006 34.202595 34.213392 34.223380 34.232561 34.240921 34.248461 34.255171 34.261052 34.266096 34.270303 34.273669 34.276193 34.277873 34.278709 34.278700 34.277846 34.276148 34.273605 34.270222 34.265998 34.260937 34.255041 34.248316 34.240761 34.232388 34.223196 34.213197 34.202391 34.190794 34.178407 34.165247 34.151316 34.136635 34.121207 34.105054 34.088181 34.070614 34.052358 34.033443 34.013874 33.993684 33.972881 33.951500 33.929547 33.907063 33.884055 33.860564 33.836599 33.812202 33.787385 33.762189 33.736626 33.710740 33.684541 33.658075 33.631352 33.604416 33.577277 33.549979 33.522531 33.494976 33.467322 33.439611 33.411848 33.384075 33.356294 33.328544 33.300828 33.273182 33.245604 33.218130 33.190757 33.163515 33.136401 33.109442 33.082632 33.055996 33.029525 33.003242 32.977136 32.951225 32.925499 32.899973 32.874632 32.849491 32.824533 32.799769 32.775183 32.750781 32.726547 32.702485 32.678577 32.654825 32.631210 32.607732 32.584374 32.561130 32.537984 32.514930 32.491951 32.469039 32.446177 32.423356 32.400560 32.377778
32.755556 32.802828 32.850126 32.897472 32.944895 32.992414 33.040059 33.087846 33.135806 33.183950 33.232312 33.280897 33.329740 33.378842 33.428235 33.477916 33.527919 33.578233 33.628890 33.679875 33.731218 33.782899 33.834944 33.887327 33.940072 33.993147 34.046573 34.100312 34.154381 34.208735 34.263389 34.318290 34.373451 34.428812 34.484382 34.540096 34.595957 34.651895 34.707911 34.763930 34.819946 34.875881 34.931726 34.987400 35.042889 35.098110 35.153045 35.207609 35.261784 35.315481 35.368681 35.421295 35.473302 35.524614 35.575210 35.625003 35.673973 35.722034 35.769168 35.815292 35.860388 35.904378 35.947247 35.988920 36.029384 36.068571 36.106468 36.143014 36.178198 36.211965 36.244306 36.275172 36.304556 36.332416 36.358747 36.383510 36.406704 36.428297 36.448287 36.466648 36.483379 36.498458 36.511887 36.523648 36.533741 36.542155 36.548890 36.553938 36.557300 36.558972 36.558954 36.557245 36.553847 36.548763 36.541993 36.533545 36.523418 36.511626 36.498167 36.483060 36.466303 36.447919 36.427908 36.406297 36.383088 36.358313 36.331975 36.304112 36.274729 36.243869 36.211539 36.177789 36.142628 36.106111 36.068250 36.029107 35.988694 35.947081 35.904281 35.860368 35.815359 35.769334 35.722309 35.674369 35.625532 35.575885 35.525447 35.474309 35.422490 35.370080 35.317100 35.263640 35.209719 35.155428 35.100783 35.045875 34.990717 34.935397 34.879927 34.824390 34.768796 34.713224 34.657679 34.602237 34.546900 34.491737 34.436746 34.381992 34.327467 34.273233 34.219276 34.165650 34.112341 34.059396 34.006795 33.954579 33.902726 33.851271 33.800187 33.749504 33.699193 33.649275 33.599722 33.550547 33.501720 33.453249 33.405103 33.357284 33.309760 33.262528 33.215555 33.168834 33.122331 33.076035 33.029913 32.983949 32.938112 32.892382 32.846728 32.801129 32.755556
33.133333 33.204266 33.275234 33.346280 33.417435 33.488742 33.560228 33.631940 33.703898 33.776150 33.848709 33.921626 33.994907 34.068602 34.142709 34.217277 34.292299 34.367820 34.443825 34.520357 34.597392 34.674972 34.753061 34.831699 34.910841 34.990522 35.070688 35.151369 35.232501 35.314110 35.396122 35.478557 35.561332 35.644462 35.727853 35.811515 35.895346 35.979349 36.063416 36.147541 36.231611 36.315614 36.399430 36.483042 36.566326 36.649260 36.731714 36.813664 36.894977 36.975625 37.055475 37.134498 37.212558 37.289625 37.365566 37.440352 37.513851 37.586034 37.656777 37.726049 37.793731 37.859797 37.924134 37.986718 38.047445 38.106292 38.163164 38.218043 38.270841 38.321545 38.370075 38.416420 38.460511 38.502341 38.541848 38.579027 38.613826 38.646244 38.676234 38.703798 38.728898 38.751536 38.771681 38.789335 38.804477 38.817108 38.827211 38.834789 38.839832 38.842342 38.842314 38.839750 38.834652 38.827021 38.816865 38.804183 38.788992 38.771290 38.751100 38.728421 38.703282 38.675683 38.645661 38.613217 38.578395 38.541199 38.501681 38.459847 38.415758 38.369421 38.320909 38.270230 38.217467 38.162631 38.105814 38.047032 37.986383 37.923888 37.859653 37.793704 37.726153 37.657028 37.586450 37.514447 37.441147 37.366581 37.290878 37.214071 37.136293 37.057576 36.978056 36.897763 36.816831 36.735290 36.653274 36.570807 36.488022 36.404939 36.321687 36.238281 36.154845 36.071388 35.988029 35.904771 35.821725 35.738889 35.656366 35.574147 35.492327 35.410892 35.329926 35.249410 35.169418 35.089926 35.010999 34.932607 34.854805 34.777558 34.700912 34.624827 34.549341 34.474410 34.400062 34.326249 34.252992 34.180240 34.108004 34.036234 33.964932 33.894046 33.823570 33.753453 33.683682 33.614207 33.545006 33.476032 33.407258 33.338637 33.270138 33.201715 33.133333
33.511111 33.605730 33.700401 33.795169 33.890091 33.985206 34.080574 34.176228 34.272229 34.368602 34.465412 34.562672 34.660449 34.758747 34.857631 34.957096 35.057206 35.157944 35.259372 35.361461 35.464270 35.567759 35.671982 35.776886 35.882521 35.988820 36.095828 36.203466 36.311771 36.420652 36.530138 36.640126 36.750637 36.861557 36.972898 37.084533 37.196468 37.308564 37.420818 37.533082 37.645346 37.757452 37.869381 37.980970 38.092192 38.202878 38.312996 38.422372 38.530968 38.638608 38.745253 38.850723 38.954976 39.057837 39.159261 39.259075 39.357236 39.453574 39.548050 39.640501 39.730887 39.819056 39.904971 39.988489 40.069578 40.148105 40.224043 40.297270 40.367764 40.435415 40.500206 40.562038 40.620899 40.676702 40.729440 40.779036 40.825487 40.868729 40.908758 40.945523 40.979024 41.009216 41.036102 41.059648 41.079856 41.096700 41.110184 41.120290 41.127020 41.130367 41.130330 41.126911 41.120108 41.109931 41.096377 41.079465 41.059192 41.035583 41.008638 40.978390 40.944838 40.908026 40.867954 40.824678 40.778197 40.728579 40.675826 40.620017 40.561158 40.499339 40.434570 40.366953 40.296505 40.223337 40.147471 40.069032 39.988045 39.904647 39.818869 39.730856 39.640645 39.548391 39.454133 39.358036 39.260141 39.160619 39.059513 38.957000 38.853122 38.748060 38.641855 38.534689 38.426601 38.317771 38.208236 38.098174 37.987615 37.876734 37.765555 37.654246 37.542826 37.431455 37.320142 37.209041 37.098153 36.987620 36.877436 36.767732 36.658494 36.549840 36.441748 36.334325 36.227541 36.121489 36.016133 35.911553 35.807704 35.704656 35.602357 35.500863 35.400119 35.300167 35.200947 35.102490 35.004731 34.907691 34.811301 34.715572 34.620433 34.525883 34.431852 34.338329 34.245244 34.152575 34.060255 33.968254 33.876507 33.784975 33.693597 33.602328 33.511111
33.888889 34.007233 34.125639 34.244173 34.362891 34.481864 34.601138 34.720791 34.840856 34.961415 35.082491 35.204167 35.326454 35.449436 35.573111 35.697560 35.822771 35.948822 36.075686 36.203437 36.332033 36.461545 36.591916 36.723209 36.855352 36.988402 37.122270 37.257005 37.392504 37.528806 37.665791 37.803490 37.941766 38.080642 38.219965 38.359747 38.499821 38.640189 38.780672 38.921260 39.061762 39.202160 39.342251 39.482008 39.621221 39.759853 39.897688 40.034683 40.170617 40.305442 40.438934 40.571042 40.701542 40.830381 40.957338 41.082359 41.205229 41.325894 41.444147 41.559938 41.673067 41.783489 41.891016 41.995607 42.097087 42.195420 42.290447 42.382137 42.470344 42.555045 42.636109 42.713518 42.787156 42.857012 42.922983 42.985064 43.043166 43.097288 43.147354 43.193367 43.235264 43.273048 43.306671 43.336136 43.361406 43.382484 43.399344 43.411990 43.420406 43.424594 43.424548 43.420270 43.411764 43.399029 43.382082 43.360919 43.335568 43.306025 43.272328 43.234474 43.192513 43.146443 43.096324 43.042159 42.984020 42.921912 42.855922 42.786059 42.712424 42.635031 42.553996 42.469337 42.381188 42.289572 42.194636 42.096411 41.995060 41.890618 41.783263 41.673036 41.560126 41.444581 41.326601 41.206237 41.083701 40.959044 40.832485 40.704080 40.574050 40.442451 40.309510 40.175276 40.039979 39.903665 39.766560 39.628707 39.490325 39.351452 39.212300 39.072898 38.933451 38.793978 38.654674 38.515548 38.376783 38.238379 38.100503 37.963146 37.826463 37.690431 37.555191 37.420710 37.287114 37.154361 37.022559 36.891657 36.761749 36.632775 36.504812 36.377794 36.251781 36.126701 36.002600 35.879400 35.757131 35.635712 35.515159 35.395389 35.276402 35.158115 35.040516 34.923520 34.807104 34.691183 34.575724 34.460644 34.345900 34.231413 34.117129 34.002975 33.888889
34.266667 34.408780 34.550971 34.693310 34.835882 34.978746 35.121992 35.265671 35.409876 35.554643 35.700071 35.846182 35.993074 36.140757 36.289326 36.438777 36.589203 36.740583 36.893007 37.046435 37.200955 37.356507 37.513172 37.670873 37.829683 37.989505 38.150403 38.312261 38.475134 38.638886 38.803561 38.969004 39.135247 39.302117 39.469634 39.637606 39.806040 39.974729 40.143668 40.312634 40.481609 40.650357 40.818848 40.986836 41.154281 41.320924 41.486720 41.651402 41.814916 41.976993 42.137573 42.296386 42.453368 42.608251 42.760969 42.911259 43.059057 43.204106 43.346344 43.485527 43.621595 43.754315 43.883636 44.009338 44.131377 44.249549 44.363815 44.473993 44.580049 44.681817 44.779274 44.872271 44.960792 45.044705 45.124001 45.198567 45.268398 45.333397 45.393565 45.448820 45.499165 45.544536 45.584936 45.620314 45.650676 45.675983 45.696240 45.711423 45.721534 45.726562 45.726508 45.721371 45.711153 45.695864 45.675503 45.650095 45.619636 45.584165 45.543676 45.498223 45.447801 45.392477 45.332248 45.267196 45.197322 45.122723 45.043406 44.959484 44.870968 44.777990 44.680567 44.578851 44.472864 44.362776 44.248618 44.130577 44.008694 43.883171 43.754056 43.621570 43.485765 43.346878 43.204966 43.060280 42.912881 42.763029 42.610788 42.456427 42.300009 42.141808 41.981888 41.820521 41.657770 41.493907 41.328987 41.163279 40.996830 40.829904 40.662539 40.494987 40.327277 40.159651 39.992126 39.824929 39.658066 39.491748 39.325968 39.160922 38.996590 38.833149 38.670567 38.509003 38.348412 38.188935 38.030515 37.873275 37.717146 37.562231 37.408454 37.255898 37.104479 36.954259 36.805150 36.657195 36.510299 36.364490 36.219667 36.075843 35.932912 35.790872 35.649619 35.509131 35.369307 35.230113 35.091446 34.953262 34.815461 34.677986 34.540744 34.403666 34.266667
34.644444 34.810383 34.976409 35.142617 35.309084 35.475912 35.643167 35.810956 35.979330 36.148401 36.318206 36.488859 36.660378 36.832879 37.006363 37.180944 37.356605 37.533456 37.711459 37.890721 38.071183 38.252944 38.435925 38.620216 38.805716 38.992506 39.180461 39.369652 39.559931 39.751356 39.943759 40.137182 40.331435 40.526547 40.722306 40.918726 41.115576 41.312855 41.510313 41.707933 41.905449 42.102831 42.299796 42.496304 42.692058 42.887005 43.080841 43.273503 43.464679 43.654299 43.842049 44.027853 44.211396 44.392602 44.571158 44.746987 44.919785 45.089475 45.255765 45.418582 45.577647 45.732894 45.884059 46.031083 46.173721 46.311923 46.445463 46.574300 46.698229 46.817219 46.931086 47.039806 47.143218 47.241306 47.333930 47.421081 47.502639 47.578599 47.648863 47.713429 47.772216 47.825227 47.872397 47.913730 47.949177 47.978742 48.002391 48.020127 48.031931 48.037805 48.037742 48.031743 48.019814 48.001954 47.978185 47.948503 47.912944 47.871503 47.824231 47.771123 47.712248 47.647601 47.577267 47.501245 47.419638 47.332449 47.239801 47.141703 47.038297 46.929599 46.815774 46.696845 46.572997 46.444264 46.310852 46.172803 46.030346 45.883532 45.732608 45.577634 45.418877 45.256403 45.090496 44.921229 44.748897 44.573579 44.395581 44.214982 44.032098 43.847007 43.660028 43.471236 43.280952 43.089244 42.896431 42.702574 42.507984 42.312714 42.117064 41.921076 41.725039 41.528980 41.333174 41.137635 40.942620 40.748128 40.554397 40.361412 40.169391 39.978303 39.788345 39.599472 39.411858 39.225445 39.040385 38.856605 38.674237 38.493196 38.313588 38.135322 37.958481 37.782964 37.608832 37.435977 37.264441 37.094109 36.925002 36.757002 36.590112 36.424210 36.259282 36.095207 35.931951 35.769396 35.607494 35.446128 35.285236 35.124707 34.964465 34.804407 34.644444
35.022222 35.212047 35.401976 35.592105 35.782547 35.973384 36.164738 36.356674 36.549321 36.742728 36.937026 37.132247 37.328523 37.525867 37.724409 37.924143 38.125196 38.327538 38.531294 38.736410 38.943003 39.150996 39.360497 39.571404 39.783814 39.997601 40.212850 40.429407 40.647344 40.866483 41.086879 41.308329 41.530873 41.754281 41.978577 42.203509 42.429082 42.655020 42.881314 43.107666 43.334049 43.560149 43.785923 44.011039 44.235442 44.458786 44.681004 44.901742 45.120921 45.338181 45.553438 45.766329 45.976765 46.184387 46.389102 46.590558 46.788663 46.983077 47.173711 47.360237 47.542574 47.720411 47.893675 48.062075 48.225547 48.383822 48.536847 48.684378 48.826370 48.962604 49.093048 49.217506 49.335955 49.448225 49.554302 49.654038 49.747428 49.834346 49.914792 49.988662 50.055961 50.116605 50.170598 50.217878 50.258449 50.292266 50.319332 50.339618 50.353128 50.359846 50.359774 50.352914 50.339262 50.318837 50.291634 50.257685 50.216985 50.169583 50.115473 50.054721 49.987322 49.913361 49.832834 49.745847 49.652402 49.552623 49.446519 49.334239 49.215797 49.091366 48.960970 48.824805 48.682906 48.535496 48.382617 48.224518 48.061253 47.893093 47.720104 47.542580 47.360595 47.174463 46.984266 46.790337 46.592763 46.391892 46.187814 45.980888 45.771205 45.559129 45.344752 45.128440 44.910279 44.690634 44.469583 44.247487 44.024413 43.800713 43.576441 43.351937 43.127241 42.902676 42.678269 42.454321 42.230844 42.008120 41.786140 41.565166 41.345171 41.126393 40.908790 40.692571 40.477680 40.264301 40.052360 39.842018 39.633186 39.425998 39.220352 39.016359 38.813904 38.613073 38.413743 38.215973 38.019635 37.824764 37.631226 37.439034 37.248050 37.058267 36.869546 36.681857 36.495064 36.309119 36.123887 35.939304 35.755238 35.571612 35.388299 35.205208 35.022222
35.400000 35.613783 35.827679 36.041813 36.256284 36.471226 36.686724 36.902919 37.119876 37.337743 37.556566 37.776495 37.997555 38.219896 38.443522 38.668579 38.895047 39.123070 39.352601 39.583777 39.816525 40.050972 40.287020 40.524784 40.764136 41.005179 41.247757 41.491958 41.737595 41.984742 42.233182 42.482971 42.733864 42.985896 43.238797 43.492582 43.746954 44.001908 44.257123 44.512576 44.767920 45.023116 45.277799 45.531909 45.785067 46.037198 46.287908 46.537113 46.784407 47.029696 47.272573 47.512934 47.750373 47.984784 48.215763 48.443206 48.666719 48.886199 49.101268 49.311827 49.517516 49.718247 49.913679 50.103734 50.288096 50.466699 50.639254 50.805706 50.965794 51.119475 51.266518 51.406890 51.540389 51.666993 51.786526 51.898977 52.004196 52.102179 52.192800 52.276063 52.351864 52.420209 52.481016 52.534294 52.579981 52.618085 52.648562 52.671420 52.686631 52.694201 52.694121 52.686392 52.671022 52.648009 52.617380 52.579128 52.533298 52.479883 52.418946 52.350480 52.274568 52.191204 52.100493 52.002433 51.897152 51.784654 51.665092 51.538477 51.404988 51.264646 51.117658 50.964056 50.804074 50.637757 50.465368 50.286963 50.102835 49.913050 49.717929 49.517550 49.312258 49.102141 48.887566 48.668630 48.445717 48.218931 47.988669 47.755040 47.518450 47.279005 47.037120 46.792897 46.546749 46.298772 46.049377 45.798649 45.546988 45.294469 45.041479 44.788076 44.534633 44.281190 44.028100 43.775384 43.523373 43.272069 43.021778 42.772482 42.524461 42.277677 42.032383 41.788520 41.546313 41.305687 41.066836 40.829667 40.594347 40.360766 40.129062 39.899114 39.671029 39.444674 39.220129 38.997252 38.776096 38.556511 38.338524 38.121981 37.906885 37.693077 37.480538 37.269109 37.058748 36.849300 36.640701 36.432801 36.225518 36.018708 35.812271 35.606073 35.400000
35.777778 36.015594 36.253544 36.491746 36.730346 36.969448 37.209205 37.449702 37.691101 37.933465 38.176961 38.421630 38.667638 38.915005 39.163895 39.414302 39.666386 39.920113 40.175639 40.432900 40.692042 40.952972 41.215826 41.480478 41.747051 42.015388 42.285595 42.557483 42.831141 43.106348 43.383172 43.661360 43.940961 44.221688 44.503571 44.786291 45.069855 45.353917 45.638461 45.923115 46.207841 46.492243 46.776265 47.059488 47.341837 47.622879 47.902522 48.180321 48.456171 48.729618 49.000549 49.268509 49.533377 49.794701 50.052359 50.305907 50.555224 50.799880 51.039760 51.274451 51.503845 51.727554 51.945482 52.157263 52.362815 52.561804 52.754158 52.939575 53.118000 53.289158 53.453011 53.609316 53.758047 53.898993 54.032138 54.157304 54.274483 54.383524 54.484429 54.577073 54.661462 54.737495 54.805184 54.864448 54.915299 54.957681 54.991601 55.017022 55.033952 55.042372 55.042283 55.033688 55.016585 54.990992 54.956904 54.914360 54.863351 54.803936 54.736105 54.659938 54.575426 54.482672 54.381668 54.272544 54.155296 54.030081 53.896904 53.755947 53.607227 53.450958 53.287166 53.116096 52.937790 52.752525 52.560354 52.361588 52.156295 51.944816 51.727233 51.503917 51.274962 51.040765 50.801433 50.557383 50.308732 50.055915 49.799054 49.538600 49.274673 49.007735 48.737903 48.465642 48.191065 47.914633 47.636449 47.356968 47.076281 46.794828 46.512686 46.230279 45.947664 45.665246 45.383061 45.101489 44.820547 44.540587 44.261604 43.983921 43.707510 43.432664 43.159334 42.887782 42.617935 42.350024 42.083957 41.819932 41.557838 41.297841 41.039814 40.783890 40.529929 40.278033 40.028049 39.780048 39.533869 39.289552 39.046931 38.806017 38.566639 38.328784 38.092276 37.857078 37.623016 37.390029 37.157946 36.926685 36.696081 36.466033 36.236383 36.007014 35.777778
36.155556 36.417493 36.679571 36.941945 37.204738 37.468116 37.732185 37.997120 38.263004 38.530018 38.798223 39.067802 39.338791 39.611373 39.885557 40.161522 40.439249 40.718912 41.000459 41.284057 41.569622 41.857309 42.147001 42.438839 42.732670 43.028620 43.326500 43.626419 43.928150 44.231782 44.537052 44.844027 45.152409 45.462239 45.773188 46.085270 46.398123 46.711737 47.025719 47.340035 47.654262 47.968344 48.281833 48.594651 48.906329 49.216771 49.525490 49.832373 50.136924 50.439017 50.738150 51.034188 51.326630 51.615336 51.899810 52.179915 52.455165 52.725428 52.990236 53.249464 53.502669 53.749735 53.990246 54.224102 54.450917 54.670605 54.882817 55.087481 55.284282 55.473168 55.653856 55.826311 55.990287 56.145761 56.292521 56.430558 56.559691 56.679920 56.791097 56.893227 56.986189 57.069995 57.144548 57.209861 57.265863 57.312565 57.349918 57.377930 57.396572 57.405850 57.405754 57.396285 57.377453 57.349254 57.311719 57.264839 57.208666 57.143189 57.068481 56.984530 56.891434 56.789183 56.677901 56.557581 56.428375 56.290284 56.143490 55.988005 55.824044 55.651628 55.471008 55.282222 55.085553 54.881055 54.669048 54.449603 54.223076 53.989552 53.749422 53.502787 53.250069 52.991383 52.727178 52.457581 52.183065 51.903764 51.620169 51.332418 51.041015 50.746098 50.448178 50.147388 49.844239 49.538857 49.231746 48.923020 48.613173 48.302300 47.990881 47.678992 47.367091 47.055233 46.743849 46.432973 46.123008 45.813961 45.506205 45.199722 44.894854 44.591555 44.290133 43.990521 43.692988 43.397444 43.104124 42.812916 42.524019 42.237303 41.952928 41.670750 41.390893 41.113198 40.837756 40.564395 40.293175 40.023912 39.756636 39.491157 39.227475 38.965397 38.704893 38.445770 38.187972 37.931308 37.675698 37.420955 37.166978 36.913588 36.660661 36.408031 36.155556
36.533333 36.819480 37.105789 37.392407 37.679511 37.967229 38.255746 38.545170 38.835694 39.127401 39.420490 39.715016 40.011180 40.309009 40.608703 40.910256 41.213865 41.519491 41.827322 42.137287 42.449561 42.764038 43.080879 43.399939 43.721365 44.044973 44.370888 44.698889 45.029081 45.361200 45.695329 46.031165 46.368763 46.707784 47.048257 47.389802 47.732422 48.075703 48.419620 48.763725 49.107967 49.451868 49.795351 50.137914 50.479456 50.819454 51.157789 51.493920 51.827712 52.158617 52.486485 52.810766 53.131304 53.447551 53.759350 54.066162 54.367833 54.663842 54.954040 55.237931 55.515377 55.785908 56.049402 56.305422 56.553864 56.794325 57.026720 57.250685 57.466153 57.672801 57.870579 58.059204 58.238644 58.408652 58.569212 58.720115 58.861357 58.992762 59.114337 59.225936 59.327572 59.419131 59.500627 59.571971 59.633180 59.684188 59.725010 59.755603 59.775975 59.786108 59.786005 59.775665 59.755088 59.724293 59.683275 59.632075 59.570681 59.499160 59.417497 59.325783 59.224003 59.112274 58.990585 58.859083 58.717763 58.566803 58.406207 58.236189 58.056766 57.868187 57.670483 57.463946 57.248622 57.024840 56.792669 56.552476 56.304348 56.048692 55.785613 55.515554 55.238638 54.955341 54.665800 54.370520 54.069649 53.763715 53.452874 53.137672 52.818265 52.495210 52.168662 51.839183 51.506918 51.172428 50.835846 50.497722 50.158174 49.817738 49.476511 49.135006 48.793300 48.451879 48.110795 47.770505 47.431033 47.092803 46.755812 46.420449 46.086682 45.754862 45.424932 45.097203 44.771591 44.448369 44.127428 43.809002 43.492959 43.179494 42.868455 42.559997 42.253952 41.950438 41.649270 41.350530 41.054024 40.759796 40.467643 40.177578 39.889391 39.603064 39.318384 39.035303 38.753611 38.473229 38.193952 37.915678 37.638206 37.361411 37.085103 36.809137 36.533333
36.911111 37.221567 37.532193 37.843174 38.154661 38.466853 38.779879 39.093947 39.409161 39.725737 40.043751 40.363422 40.684797 41.008095 41.333329 41.660716 41.990235 42.322095 42.656240 42.992867 43.331883 43.673472 44.017498 44.364132 44.713195 45.064838 45.418840 45.775330 46.134044 46.495084 46.858146 47.223302 47.590206 47.958903 48.329003 48.700521 49.073027 49.446507 49.820493 50.194939 50.569343 50.943630 51.317268 51.690156 52.061734 52.431877 52.800006 53.165976 53.529194 53.889497 54.246286 54.599389 54.948205 55.292558 55.631855 55.965920 56.294174 56.616448 56.932185 57.241226 57.543044 57.837494 58.124082 58.402682 58.672840 58.934449 59.187096 59.430696 59.664879 59.889583 60.104481 60.309529 60.504445 60.689204 60.863563 61.027514 61.180853 61.323583 61.455536 61.576725 61.687013 61.786418 61.874834 61.952279 62.018675 62.074038 62.118315 62.151517 62.173613 62.184610 62.184500 62.173281 62.150965 62.117547 62.073060 62.017492 61.950898 61.873264 61.784669 61.685097 61.574656 61.453329 61.321255 61.178421 61.025001 60.860989 60.686594 60.501826 60.306930 60.101931 59.887119 59.662534 59.428510 59.185108 58.932706 58.671388 58.401572 58.123366 57.837230 57.543291 57.242050 56.933651 56.618628 56.297143 55.969758 55.636644 55.298387 54.955163 54.607575 54.255798 53.900443 53.541681 53.180122 52.815928 52.449700 52.081585 51.712172 51.341586 50.970395 50.598702 50.227048 49.855509 49.484596 49.114355 48.745264 48.377336 48.011013 47.646278 47.283530 46.922723 46.564216 46.207932 45.854186 45.502874 45.154269 44.808240 44.465018 44.124447 43.786716 43.451650 43.119395 42.789758 42.462845 42.138449 41.816638 41.497192 41.180143 40.865264 40.552549 40.241768 39.932884 39.625664 39.320039 39.015780 38.712789 38.410843 38.109817 37.809497 37.509735 37.210330 36.911111
37.288889 37.623752 37.958809 38.294235 38.630240 38.966975 39.304663 39.643432 39.983512 40.325004 40.668143 41.012998 41.359807 41.708606 42.059631 42.412881 42.768586 43.126709 43.487471 43.850792 44.216880 44.585616 44.957189 45.331436 45.708528 46.088256 46.470766 46.855805 47.243492 47.633527 48.026002 48.420568 48.817287 49.215764 49.616029 50.017641 50.420597 50.824414 51.229055 51.633997 52.039170 52.444014 52.848430 53.251827 53.654075 54.054558 54.453123 54.849134 55.242418 55.632326 56.018670 56.400800 56.778517 57.151175 57.518575 57.880080 58.235496 58.584208 58.926031 59.260378 59.587079 59.905581 60.215734 60.517025 60.809326 61.092169 61.365451 61.628749 61.881985 62.124785 62.357095 62.578587 62.789229 62.988742 63.177111 63.354099 63.519709 63.673744 63.816217 63.946969 64.066020 64.173245 64.268666 64.352187 64.423831 64.483529 64.531299 64.567098 64.590936 64.602795 64.602677 64.590584 64.566511 64.530483 64.482488 64.422573 64.350718 64.266997 64.171386 64.063985 63.944771 63.813873 63.671271 63.517128 63.351432 63.174381 62.985976 62.786456 62.575836 62.354400 62.122183 61.879514 61.626450 61.363368 61.090351 60.807823 60.515890 60.215026 59.905360 59.587410 59.261330 58.927677 58.586623 58.238762 57.884281 57.523802 57.157521 56.786082 56.409685 56.028987 55.644185 55.255940 54.864440 54.470344 54.073825 53.675529 53.275610 52.874696 52.472914 52.070866 51.668654 51.266846 50.865513 50.465189 50.065909 49.668169 49.271970 48.877765 48.485521 48.095646 47.708075 47.323169 46.940832 46.561378 46.184681 45.811009 45.440208 45.072501 44.707710 44.346011 43.987206 43.631426 43.278458 42.928388 42.580989 42.236308 41.894106 41.554391 41.216918 40.881658 40.548363 40.216970 39.887231 39.559052 39.232187 38.906515 38.581797 38.257884 37.934551 37.611623 37.288889
37.666667 38.026049 38.385631 38.745632 39.106231 39.467661 39.830076 40.193720 40.558718 40.925324 41.293630 41.663893 42.036172 42.410723 42.787568 43.166960 43.548881 43.933574 44.320981 44.711333 45.104527 45.500778 45.899936 46.302198 46.707365 47.115611 47.526687 47.940740 48.357473 48.777000 49.198975 49.623481 50.050119 50.478938 50.909490 51.341787 51.775334 52.210107 52.645564 53.081643 53.517764 53.953829 54.389219 54.823803 55.256931 55.688443 56.117664 56.544409 56.967985 57.388189 57.804317 58.216155 58.622998 59.024625 59.420342 59.809927 60.192707 60.568466 60.936557 61.296782 61.648525 61.991609 62.325461 62.649925 62.964478 63.268990 63.562987 63.846368 64.118710 64.379942 64.629693 64.867918 65.094296 65.308805 65.511175 65.701403 65.879263 66.044766 66.197731 66.338177 66.465959 66.581103 66.683497 66.773168 66.850034 66.914117 66.965362 67.003787 67.029359 67.042087 67.041963 67.028985 67.003167 66.964500 66.913018 66.848704 66.771617 66.681734 66.579140 66.463809 66.335856 66.195256 66.042158 65.876540 65.698591 65.508299 65.305892 65.091377 64.865026 64.626864 64.377214 64.116123 63.843968 63.560820 63.267109 62.962935 62.648780 62.324772 61.991445 61.648953 61.297877 60.938395 60.571131 60.196282 59.814507 59.426020 59.031504 58.631182 58.225757 57.815451 57.400978 56.982554 56.560892 56.136196 55.709171 55.280001 54.849372 54.417445 53.984881 53.551812 53.118867 52.686143 52.254235 51.823203 51.393600 50.965450 50.539260 50.115017 49.693181 49.273701 48.856988 48.442955 48.031964 47.623895 47.219057 46.817301 46.418885 46.023633 45.631754 45.243045 44.857669 44.475402 44.096359 43.720301 43.347298 42.977095 42.609722 42.244914 41.882660 41.522691 41.164956 40.809186 40.455294 40.103014 39.752227 39.402672 39.054199 38.706559 38.359575 38.013011 37.666667