# vtk DataFile Version 3.0
Steady-state temperature (Jacobi)
ASCII
DATASET STRUCTURED_POINTS
DIMENSIONS 181 181 1
ORIGIN 0.0 0.0 0.0
SPACING 0.05 0.05 1.0
POINT_DATA 32761
SCALARS Temperature float 1
LOOKUP_TABLE default
32.000000 32.000000 32.000000 32.000000 32.000000 32.000000 32.000000 32.000000
32.000000 32.000000 32.000000 32.000000 32.000000 32.000000 32.000000 32.000000
32.000000 32.000000 32.000000 32.000000 32.000000 32.000000 32.000000 32.000000
32.000000 32.000000 32.000000 32.000000 32.000000 32.000000 32.000000 32.000000
32.000000 32.000000 32.000000 32.000000 32.000000 32.000000 32.000000 32.000000
32.000000 32.000000 32.000000 32.000000 32.000000 32.000000 32.000000 32.000000
32.000000 32.000000 32.000000 32.000000 32.000000 32.000000 32.000000 32.000000
32.000000 32.000000 32.000000 32.000000 32.000000 32.000000 32.000000 32.000000
32.000000 32.000000 32.000000 32.000000 32.000000 32.000000 32.000000 32.000000
32.000000 32.000000 32.000000 32.000000 32.000000 32.000000 32.000000 32.000000
32.000000 32.000000 32.000000 32.000000 32.000000 32.000000 32.000000 32.000000
32.000000 32.000000 32.000000 32.000000 32.000000 32.000000 32.000000 32.000000
32.000000 32.000000 32.000000 32.000000 32.000000 32.000000 32.000000 32.000000
32.000000 32.000000 32.000000 32.000000 32.000000 32.000000 32.000000 32.000000
32.000000 32.000000 32.000000 32.000000 32.000000 32.000000 32.000000 32.000000
32.000000 32.000000 32.000000 32.000000 32.000000 32.000000 32.000000 32.000000
32.000000 32.000000 32.000000 32.000000 32.000000 32.000000 32.000000 32.000000
32.000000 32.000000 32.000000 32.000000 32.000000 32.000000 32.000000 32.000000
32.000000 32.000000 32.000000 32.000000 32.000000 32.000000 32.000000 32.000000
32.000000 32.000000 32.000000 32.000000 32.000000 32.000000 32.000000 32.000000
32.000000 32.000000 32.000000 32.000000 32.000000 32.000000 32.000000 32.000000
32.000000 32.000000 32.000000 32.000000 32.000000 32.000000 32.000000 32.000000
32.000000 32.000000 32.000000 32.000000 32.000000
32.377778 32.375009 32.372272 32.369605 32.367033 32.364599 32.362323 32.360252
32.358399 32.356817 32.355510 32.354537 32.353893 32.353641 32.353770 32.354344
32.355344 32.356839 32.358801 32.361300 32.364300 32.367875 32.371979 32.376686
32.381943 32.387826 32.394271 32.401356 32.409007 32.417305 32.426165 32.435667
32.445720 32.456403 32.467616 32.479437 32.491758 32.504659 32.518021 32.531924
32.546243 32.561056 32.576232 32.591849 32.607769 32.624068 32.640607 32.657458
32.674479 32.691742 32.709102 32.726631 32.744181 32.761824 32.779412 32.797017
32.814493 32.831909 32.849123 32.866202 32.883009 32.899610 32.915873 32.931862
32.947451 32.962704 32.977501 32.991903 33.005800 33.019249 33.032149 33.044556
33.056374 33.067658 33.078323 33.088418 33.097867 33.106716 33.114898 33.122455
33.129329 33.135556 33.141090 33.145959 33.150127 33.153616 33.156401 33.158495
33.159885 33.160576 33.160565 33.159850 33.158437 33.156318 33.153509 33.149995
33.145800 33.140904 33.135342 33.129086 33.122180 33.114591 33.106374 33.097490
33.088002 33.077867 33.067159 33.055830 33.043963 33.031506 33.018553 33.005046
32.991089 32.976624 32.961760 32.946437 32.930773 32.914706 32.898361 32.881674
32.864777 32.847604 32.830292 32.812773 32.795190 32.777474 32.759770 32.742008
32.724335 32.706678 32.689187 32.671789 32.654629 32.637635 32.620951 32.604503
32.588432 32.572662 32.557330 32.542359 32.527881 32.513819 32.500297 32.487237
32.474757 32.462777 32.451409 32.440573 32.430371 32.420722 32.411722 32.403289
32.395509 32.388303 32.381745 32.375758 32.370408 32.365618 32.361444 32.357812
32.354769 32.352242 32.350270 32.348781 32.347806 32.347276 32.347214 32.347553
32.348307 32.349414 32.350881 32.352647 32.354713 32.357023 32.359569 32.362301
32.365202 32.368229 32.371359 32.374551 32.377778
32.755556 32.750039 32.744593 32.739274 32.734163 32.729305 32.724793 32.720657
32.716998 32.713834 32.711276 32.709325 32.708101 32.707589 32.707916 32.709053
32.711133 32.714108 32.718118 32.723099 32.729196 32.736326 32.744637 32.754030
32.764657 32.776399 32.789411 32.803555 32.818989 32.835556 32.853416 32.872393
32.892646 32.913983 32.936564 32.960177 32.984982 33.010753 33.037647 33.065422
33.094235 33.123830 33.154363 33.185564 33.217588 33.250156 33.283418 33.317090
33.351319 33.385814 33.420721 33.455746 33.491033 33.526286 33.561647 33.596824
33.631955 33.666754 33.701356 33.735481 33.769263 33.802431 33.835117 33.867061
33.898391 33.928862 33.958598 33.987369 34.015294 34.042160 34.068081 34.092861
34.116608 34.139145 34.160574 34.180734 34.199719 34.217390 34.233830 34.248919
34.262730 34.275164 34.286282 34.296003 34.304377 34.311344 34.316938 34.321120
34.323912 34.325292 34.325269 34.323841 34.321003 34.316772 34.311129 34.304112
34.295686 34.285910 34.274736 34.262243 34.248370 34.233216 34.216707 34.198964
34.179902 34.159661 34.138148 34.115520 34.091676 34.066795 34.040766 34.013786
33.985741 33.956844 33.926974 33.896362 33.864883 33.832783 33.799933 33.766593
33.732631 33.698318 33.663519 33.628516 33.593171 33.557772 33.522180 33.486688
33.451155 33.415874 33.380704 33.345939 33.311432 33.277475 33.243922 33.211057
33.178731 33.147222 33.116378 33.086468 33.057337 33.029243 33.002029 32.975940
32.950816 32.926888 32.903997 32.882354 32.861801 32.842533 32.824392 32.807555
32.791864 32.777477 32.764239 32.752291 32.741476 32.731920 32.723467 32.716225
32.710042 32.705007 32.700975 32.698013 32.695984 32.694938 32.694741 32.695429
32.696874 32.699095 32.701971 32.705508 32.709590 32.714209 32.719259 32.724716
32.730484 32.736526 32.742757 32.749125 32.755556
33.133333 33.125118 33.116998 33.109088 33.101464 33.094256 33.087523 33.081409
33.075950 33.071307 33.067493 33.064682 33.062865 33.062226 33.062733 33.064582
33.067714 33.072336 33.078363 33.086009 33.095164 33.106049 33.118526 33.132822
33.148772 33.166609 33.186137 33.207594 33.230758 33.255866 33.282669 33.311407
33.341804 33.374098 33.407987 33.443711 33.480940 33.519913 33.560277 33.602269
33.645515 33.690248 33.736075 33.783225 33.831290 33.880496 33.930421 33.981286
34.032661 34.084763 34.137154 34.190049 34.243007 34.296241 34.349310 34.402422
34.455143 34.507678 34.559601 34.611114 34.661803 34.711867 34.760907 34.809118
34.856121 34.902104 34.946711 34.990124 35.032010 35.072546 35.111422 35.148807
35.184420 35.218419 35.250551 35.280961 35.309427 35.336080 35.360728 35.383486
35.404191 35.422944 35.439610 35.454271 35.466823 35.477329 35.485714 35.492021
35.496205 35.498286 35.498251 35.496099 35.491845 35.485466 35.477007 35.466425
35.453795 35.439052 35.422302 35.403461 35.382663 35.359807 35.335057 35.308295
35.279714 35.249183 35.216923 35.182788 35.147031 35.109493 35.070456 35.029750
34.987684 34.944080 34.899273 34.853078 34.805852 34.757407 34.708121 34.657800
34.606840 34.555045 34.502827 34.449984 34.396943 34.343497 34.290083 34.236491
34.183162 34.129884 34.077099 34.024591 33.972800 33.921507 33.871146 33.821495
33.772976 33.725364 33.679071 33.633866 33.590144 33.547674 33.506830 33.467379
33.429673 33.393477 33.359122 33.326368 33.295524 33.266349 33.239124 33.213611
33.190063 33.168243 33.148377 33.130230 33.114000 33.099457 33.086771 33.075716
33.066435 33.058708 33.052650 33.048049 33.044995 33.043282 33.042975 33.043877
33.046029 33.049244 33.053540 33.058741 33.064842 33.071679 33.079225 33.087331
33.095948 33.104942 33.114245 33.123738 33.133333
33.511111 33.500259 33.489548 33.479092 33.469056 33.459528 33.450695 33.442618
33.435501 33.429379 33.424474 33.420791 33.418569 33.417779 33.418678 33.421204
33.425625 33.431849 33.440154 33.450412 33.462913 33.477492 33.494449 33.513581
33.535195 33.559053 33.585465 33.614156 33.645442 33.679009 33.715175 33.753589
33.794572 33.837736 33.883400 33.931144 33.981286 34.033370 34.087713 34.143830
34.202033 34.261811 34.323471 34.386478 34.451135 34.516886 34.584030 34.651996
34.721078 34.790693 34.861129 34.931800 35.002989 35.074106 35.145432 35.216382
35.287231 35.357403 35.427170 35.495970 35.564070 35.630927 35.696802 35.761177
35.824307 35.885700 35.945603 36.003557 36.059800 36.113905 36.166100 36.215993
36.263801 36.309168 36.352297 36.392871 36.431076 36.466634 36.499711 36.530068
36.557852 36.582864 36.605226 36.624780 36.641621 36.655632 36.666882 36.675293
36.680906 36.683682 36.683636 36.680766 36.675058 36.666551 36.655203 36.641091
36.624145 36.604484 36.582009 36.556879 36.528971 36.498484 36.465270 36.429568
36.391210 36.350474 36.307174 36.261625 36.213625 36.163529 36.111119 36.056788
36.000304 35.942097 35.881926 35.820251 35.756824 35.692137 35.625934 35.558733
35.490274 35.421097 35.350937 35.280354 35.209078 35.137684 35.065897 34.994302
34.922619 34.851438 34.780476 34.710320 34.640683 34.572148 34.504422 34.438076
34.372815 34.309194 34.246911 34.186504 34.127667 34.070913 34.015931 33.963209
33.912432 33.864059 33.817773 33.773998 33.732418 33.693423 33.656695 33.622590
33.590791 33.561618 33.534755 33.510486 33.488499 33.469041 33.451806 33.437003
33.424334 33.413972 33.405626 33.399435 33.395117 33.392777 33.392145 33.393292
33.395961 33.400191 33.405738 33.412612 33.420585 33.429634 33.439552 33.450287
33.461649 33.473561 33.485851 33.498418 33.511111
33.888889 33.875497 33.862266 33.849386 33.836987 33.825287 33.814383 33.804517
33.795753 33.788356 33.782353 33.778032 33.775380 33.774705 33.775955 33.779457
33.785115 33.793272 33.803789 33.817025 33.832796 33.851470 33.872820 33.897225
33.924408 33.954759 33.987953 34.024385 34.063686 34.106253 34.151669 34.200334
34.251787 34.306427 34.363749 34.424150 34.487083 34.552943 34.621143 34.692074
34.765112 34.840644 34.918015 34.997604 35.078730 35.161765 35.246005 35.331819
35.418483 35.506360 35.594717 35.683910 35.773201 35.862942 35.952397 36.041910
36.130756 36.219273 36.306751 36.393522 36.478897 36.563203 36.645777 36.726939
36.806059 36.883448 36.958512 37.031554 37.102018 37.170197 37.235578 37.298440
37.358316 37.415467 37.469474 37.520580 37.568413 37.613194 37.654600 37.692828
37.727605 37.759098 37.787085 37.811703 37.832778 37.850417 37.864495 37.875083
37.882107 37.885603 37.885544 37.881932 37.874790 37.864082 37.849881 37.832116
37.810910 37.786157 37.758030 37.726389 37.691458 37.653068 37.611490 37.566528
37.518505 37.467197 37.412976 37.355598 37.295483 37.232367 37.166717 37.098254
37.027490 36.954131 36.878733 36.800991 36.721500 36.639948 36.556964 36.472229
36.386404 36.299162 36.211193 36.122163 36.032783 35.942714 35.852684 35.762346
35.672437 35.582606 35.493592 35.405039 35.317681 35.231156 35.146188 35.062411
34.980530 34.900173 34.822024 34.745706 34.671876 34.600148 34.531151 34.464494
34.400768 34.339581 34.281483 34.226080 34.173882 34.124491 34.078375 34.035135
33.995196 33.958161 33.924407 33.893542 33.865897 33.841086 33.819392 33.800439
33.784463 33.771098 33.760535 33.752419 33.746899 33.743631 33.742722 33.743844
33.747064 33.752070 33.758888 33.767226 33.777072 33.788156 33.800429 33.813641
33.827712 33.842415 33.857637 33.873176 33.888889
34.266667 34.250839 34.235223 34.219995 34.205401 34.191577 34.178803 34.167173
34.156997 34.148327 34.141498 34.136518 34.133748 34.133148 34.135101 34.139520
34.146807 34.156822 34.169988 34.186112 34.205631 34.228298 34.254564 34.284127
34.317447 34.354167 34.394755 34.438797 34.486767 34.538196 34.593559 34.652333
34.714994 34.780964 34.850720 34.923629 35.000166 35.079651 35.162553 35.248145
35.336892 35.428026 35.522005 35.618024 35.716534 35.816700 35.918965 36.022472
36.127654 36.233638 36.340851 36.448409 36.556733 36.664938 36.773438 36.881353
36.989092 37.095790 37.201848 37.306423 37.409910 37.511496 37.611568 37.709346
37.805211 37.898426 37.989358 38.077317 38.162660 38.244746 38.323917 38.399585
38.472075 38.540855 38.606228 38.667720 38.725609 38.779481 38.829585 38.875566
38.917642 38.955517 38.989374 39.018977 39.044471 39.065679 39.082708 39.095438
39.103934 39.108137 39.108067 39.103724 39.095087 39.082212 39.065037 39.043677
39.018027 38.988262 38.954236 38.916185 38.873924 38.827748 38.777438 38.723350
38.665231 38.603497 38.537868 38.468816 38.396039 38.320066 38.240573 38.158147
38.072444 37.984104 37.892770 37.799133 37.702823 37.604576 37.504013 37.401912
37.297884 37.192744 37.086096 36.978784 36.870404 36.761823 36.652632 36.543711
36.434646 36.326323 36.218321 36.111526 36.005511 35.901151 35.798013 35.696957
35.597541 35.500601 35.405689 35.313613 35.223915 35.137368 35.053509 34.973070
34.895581 34.821731 34.751045 34.684162 34.620606 34.560965 34.504761 34.452529
34.403793 34.359032 34.317773 34.280441 34.246568 34.216522 34.189845 34.166850
34.147086 34.130814 34.117597 34.107639 34.100519 34.096391 34.094850 34.096000
34.099454 34.105268 34.113078 34.122894 34.134373 34.147481 34.161903 34.177561
34.194168 34.211606 34.229617 34.248046 34.266667
34.644444 34.626324 34.608431 34.591034 34.574319 34.558592 34.543990 34.530858
34.519284 34.509644 34.501976 34.496688 34.493762 34.493634 34.496230 34.502012
34.510846 34.523217 34.538931 34.558491 34.581642 34.608902 34.639953 34.675327
34.714641 34.758436 34.806264 34.858674 34.915152 34.976253 35.041395 35.111138
35.184834 35.263042 35.345053 35.431424 35.521386 35.615490 35.712912 35.814198
35.918472 36.026271 36.136675 36.250212 36.365923 36.484327 36.604434 36.726753
36.850269 36.975483 37.101366 37.228409 37.355578 37.483354 37.610708 37.738112
37.864550 37.990488 38.114928 38.238332 38.359730 38.479577 38.596942 38.712270
38.824675 38.934592 39.041188 39.144882 39.244901 39.341648 39.434409 39.523571
39.608484 39.689511 39.766068 39.838494 39.906272 39.969711 40.028362 40.082499
40.131743 40.176329 40.215948 40.250793 40.280622 40.305583 40.325505 40.340488
40.350427 40.355373 40.355292 40.350182 40.340078 40.324928 40.304835 40.279697
40.249686 40.214653 40.174837 40.130045 40.080585 40.026221 39.967331 39.903639
39.835594 39.762885 39.686029 39.604685 39.519437 39.429920 39.336783 39.239638
39.139200 39.035062 38.927999 38.817589 38.704664 38.588791 38.470852 38.350404
38.228375 38.104313 37.979184 37.852529 37.725344 37.597162 37.469003 37.340391
37.212358 37.084423 36.957620 36.831460 36.706972 36.583658 36.462534 36.343091
36.226323 36.111712 36.000221 35.891323 35.785941 35.683543 35.585005 35.489788
35.398719 35.311250 35.228155 35.148882 35.074146 35.003393 34.937274 34.875237
34.817870 34.764622 34.716018 34.671509 34.631558 34.595622 34.564099 34.536458
34.513032 34.493301 34.477538 34.465238 34.456611 34.451172 34.449071 34.449845
34.453586 34.459853 34.468685 34.479667 34.492782 34.507647 34.524195 34.542072
34.561162 34.581147 34.601865 34.623032 34.644444
35.022222 35.001953 34.981970 34.962510 34.943906 34.926341 34.910192 34.895589
34.882946 34.872337 34.864211 34.858583 34.855936 34.856221 34.859951 34.867011
34.877942 34.892560 34.911431 34.934299 34.961750 34.993458 35.030025 35.071049
35.117148 35.167844 35.223765 35.284359 35.350259 35.420838 35.496734 35.577244
35.663006 35.753247 35.848600 35.948223 36.052746 36.161259 36.274384 36.391150
36.512173 36.636425 36.764509 36.895352 37.029547 37.165977 37.305224 37.446142
37.589301 37.733531 37.879393 38.025705 38.173017 38.320146 38.467633 38.614305
38.760693 38.905644 39.049682 39.191682 39.332161 39.470034 39.605808 39.738446
39.868446 39.994825 40.118071 40.237262 40.352871 40.464044 40.571235 40.673662
40.771756 40.864812 40.953232 41.036387 41.114649 41.187467 41.255175 41.317302
41.374139 41.425296 41.471017 41.510989 41.545409 41.574040 41.597026 41.614210
41.625678 41.631351 41.631258 41.625398 41.613742 41.596367 41.573186 41.544353
41.509727 41.469538 41.423593 41.372201 41.315117 41.252731 41.184750 41.111643
41.033077 40.949598 40.860837 40.767420 40.668943 40.566109 40.458490 40.346862
40.230774 40.111076 39.987296 39.860352 39.729759 39.596498 39.460068 39.321508
39.180309 39.037556 38.892732 38.746961 38.599719 38.452160 38.303751 38.155668
38.007368 37.860037 37.713124 37.567814 37.423545 37.281490 37.141080 37.003464
36.868062 36.735993 36.606666 36.481159 36.358872 36.240835 36.126436 36.016654
35.910866 35.809991 35.713401 35.621947 35.534998 35.453335 35.376327 35.304682
35.237769 35.176224 35.119417 35.067913 35.021088 34.979431 34.942329 34.910197
34.882434 34.859383 34.840461 34.825938 34.815249 34.808598 34.805441 34.805914
34.809499 34.816268 34.825733 34.837901 34.852317 34.868929 34.887314 34.907367
34.928700 34.951154 34.974382 34.998173 35.022222
35.400000 35.377771 35.355839 35.334554 35.314156 35.295046 35.277404 35.261676
35.247980 35.236805 35.228202 35.222698 35.220277 35.221502 35.226282 35.235214
35.248130 35.265656 35.287547 35.314451 35.346046 35.382999 35.424904 35.472447
35.525137 35.583674 35.647481 35.717267 35.792372 35.873507 35.959929 36.052352
36.149948 36.253430 36.361888 36.476033 36.594877 36.719122 36.847709 36.981330
37.118860 37.260980 37.406505 37.556103 37.708540 37.864471 38.022618 38.183626
38.346185 38.510928 38.676525 38.843596 39.010805 39.178761 39.346133 39.513518
39.679602 39.844975 40.008351 40.170308 40.329603 40.486805 40.640719 40.791905
40.939226 41.083233 41.222855 41.358628 41.489555 41.616153 41.737506 41.854109
41.965128 42.071030 42.171068 42.265676 42.354195 42.437020 42.513581 42.584229
42.648483 42.706645 42.758321 42.803759 42.842655 42.875198 42.901171 42.920701
42.933658 42.940106 42.940002 42.933344 42.920176 42.900431 42.874239 42.841470
42.802341 42.756660 42.704732 42.646306 42.581776 42.510836 42.433968 42.350818
42.261957 42.166986 42.066564 41.960255 41.848805 41.731747 41.609911 41.482802
41.351335 41.214993 41.074770 40.930129 40.782140 40.630253 40.475602 40.317627
40.157523 39.994718 39.830458 39.664163 39.497118 39.328735 39.160327 38.991297
38.822977 38.654760 38.487981 38.322023 38.158216 37.995930 37.836475 37.679210
37.525416 37.374439 37.227518 37.083987 36.945036 36.809987 36.679970 36.554297
36.434034 36.318481 36.208636 36.103790 36.004864 35.911147 35.823479 35.741147
35.664909 35.594056 35.529261 35.469820 35.416322 35.368072 35.325576 35.288150
35.256220 35.229116 35.207183 35.189772 35.177148 35.168685 35.164571 35.164208
35.167710 35.174509 35.184647 35.197590 35.213313 35.231316 35.251511 35.273439
35.296947 35.321622 35.347251 35.373466 35.400000
35.777778 35.753772 35.730128 35.707150 35.685255 35.664682 35.645904 35.629089
35.614760 35.603015 35.594421 35.588999 35.587360 35.589447 35.595905 35.606596
35.622199 35.642492 35.668181 35.698955 35.735548 35.777556 35.825735 35.879586
35.939883 36.006033 36.078821 36.157559 36.243039 36.334481 36.432678 36.536755
36.647506 36.763965 36.886921 37.015320 37.149942 37.289650 37.435215 37.585421
37.741027 37.900745 38.065321 38.233406 38.405730 38.580894 38.759610 38.940439
39.124079 39.309064 39.496077 39.683635 39.872410 40.060916 40.249815 40.437633
40.625020 40.810528 40.994798 41.176421 41.356028 41.532261 41.705740 41.875171
42.041162 42.202489 42.359749 42.511795 42.659208 42.800928 42.937513 43.067995
43.192905 43.311369 43.423887 43.529682 43.629213 43.721801 43.807863 43.886816
43.959025 44.024007 44.082069 44.132826 44.176521 44.212867 44.242041 44.263852
44.278406 44.285607 44.285491 44.278058 44.263269 44.241221 44.211803 44.175207
44.131253 44.080228 44.021886 43.956611 43.884095 43.804818 43.718416 43.625467
43.525556 43.419359 43.306414 43.187498 43.062110 42.931122 42.794001 42.651714
42.503702 42.351022 42.193095 42.031064 41.864332 41.694122 41.519823 41.342732
41.162226 40.979662 40.794410 40.607877 40.419423 40.230496 40.040446 39.850747
39.660738 39.471907 39.283581 39.097247 38.912220 38.729971 38.549803 38.373159
38.199328 38.029712 37.863586 37.702301 37.545118 37.393328 37.246175 37.104884
36.968686 36.838728 36.714232 36.596264 36.484036 36.378528 36.278949 36.186187
36.099451 36.019536 35.945656 35.878511 35.817323 35.762698 35.713870 35.671352
35.634393 35.603416 35.577688 35.557545 35.542276 35.532130 35.526424 35.525324
35.528178 35.535072 35.545388 35.559134 35.575734 35.595119 35.616756 35.640507
35.665884 35.692681 35.720461 35.748955 35.777778
36.155556 36.130004 36.104822 36.080444 36.057169 36.035494 36.015644 35.998171
35.983226 35.971412 35.962799 35.958036 35.957109 35.960711 35.968739 35.981926
36.000075 36.023953 36.053268 36.088816 36.130207 36.178263 36.232490 36.293730
36.361389 36.436321 36.517827 36.606774 36.702356 36.805445 36.915133 37.032290
37.155906 37.286848 37.424006 37.568239 37.718342 37.875164 38.037409 38.205912
38.379295 38.558378 38.741709 38.930090 39.122006 39.318242 39.517232 39.719743
39.924170 40.131264 40.339396 40.549301 40.759341 40.970238 41.180359 41.390414
41.598792 41.806191 42.011038 42.214020 42.413613 42.610498 42.803211 42.992424
43.176747 43.356838 43.531395 43.701059 43.864618 44.022696 44.174178 44.319664
44.458142 44.590178 44.714868 44.832740 44.942997 45.046122 45.141425 45.229337
45.309276 45.381613 45.445874 45.502363 45.550714 45.591159 45.623436 45.647704
45.663805 45.671819 45.671692 45.663424 45.647065 45.622536 45.589991 45.549271
45.500636 45.443852 45.379284 45.306626 45.226349 45.138083 45.042405 44.938885
44.828209 44.709895 44.584736 44.452204 44.313200 44.167158 44.015086 43.856385
43.692167 43.521808 43.346517 43.165651 42.980513 42.790444 42.596830 42.399001
42.198419 41.994402 41.788475 41.579948 41.370398 41.159123 40.947736 40.735527
40.524131 40.312825 40.103250 39.894671 39.688720 39.484648 39.284063 39.086198
38.892626 38.702562 38.517528 38.336724 38.161608 37.991363 37.827376 37.668814
37.516983 37.371036 37.232190 37.099590 36.974358 36.855629 36.744430 36.639892
36.542939 36.452703 36.370007 36.293987 36.225362 36.163278 36.108353 36.059746
36.017972 35.982210 35.952877 35.929174 35.911421 35.898847 35.891678 35.889177
35.891477 35.897878 35.908427 35.922465 35.939954 35.960280 35.983327 36.008529
36.035693 36.064306 36.094105 36.124632 36.155556
36.533333 36.506456 36.480022 36.454401 36.430103 36.407422 36.386932 36.368844
36.353791 36.341899 36.333855 36.329694 36.330153 36.335171 36.345531 36.361073
36.382619 36.409906 36.443791 36.483906 36.531135 36.585001 36.646414 36.714783
36.791036 36.874470 36.966025 37.064884 37.171994 37.286422 37.409119 37.539039
37.677129 37.822231 37.975286 38.135029 38.302388 38.475997 38.656769 38.843244
39.036316 39.234440 39.438490 39.646845 39.860360 40.077349 40.298648 40.522522
40.749785 40.978668 41.209969 41.441899 41.675238 41.908198 42.141544 42.373502
42.604828 42.833777 43.061095 43.285086 43.506487 43.723664 43.937344 44.145971
44.350261 44.548745 44.742126 44.929033 45.110150 45.284214 45.451885 45.612010
45.765221 45.910479 46.048378 46.177999 46.299889 46.413247 46.518570 46.615170
46.703486 46.782948 46.853924 46.915961 46.969354 47.013762 47.049401 47.076044
47.093821 47.102619 47.102481 47.093406 47.075349 47.048421 47.012492 46.967784
46.914083 46.851724 46.780414 46.700602 46.611918 46.514931 46.409201 46.295412
46.173066 46.042964 45.904553 45.758755 45.604971 45.444239 45.275926 45.101183
44.919347 44.731681 44.537500 44.338172 44.132993 43.923432 43.708770 43.490563
43.268083 43.042964 42.814467 42.584289 42.351684 42.118395 41.883668 41.649278
41.414459 41.181002 40.948127 40.717625 40.488700 40.263125 40.040086 39.821322
39.606000 39.395813 39.189905 38.989908 38.794946 38.606575 38.423904 38.248402
38.079159 37.917554 37.762660 37.615757 37.475907 37.344282 37.219940 37.103942
36.995341 36.895090 36.802243 36.717638 36.640338 36.571068 36.508904 36.454457
36.406822 36.366500 36.332608 36.305541 36.284442 36.269603 36.260200 36.256422
36.257482 36.263476 36.273656 36.288025 36.305883 36.327142 36.351155 36.377747
36.406328 36.436642 36.468158 36.500545 36.533333
36.911111 36.883181 36.855697 36.829180 36.803995 36.780734 36.759677 36.741482
36.726336 36.714961 36.707448 36.704574 36.706330 36.713543 36.726100 36.744874
36.769640 36.801313 36.839556 36.885315 36.938136 36.998996 37.067320 37.144105
37.228656 37.321985 37.423272 37.533542 37.651847 37.779217 37.914582 38.058967
38.211181 38.372242 38.540841 38.717983 38.902243 39.094613 39.293558 39.500053
39.712463 39.931740 40.156161 40.386655 40.621424 40.861370 41.104635 41.352100
41.601856 41.854765 42.108891 42.365072 42.621363 42.878587 43.134805 43.390825
43.644735 43.897333 44.146750 44.393774 44.636598 44.876002 45.110256 45.340130
45.563984 45.782578 45.994376 46.200121 46.398389 46.589904 46.773361 46.949455
47.117007 47.276677 47.427413 47.569832 47.703008 47.827508 47.942534 48.048591
48.145008 48.232221 48.309683 48.377755 48.436012 48.484731 48.523610 48.552835
48.572227 48.581879 48.581730 48.571779 48.552084 48.522551 48.483358 48.434316
48.375725 48.307307 48.229483 48.141891 48.045077 47.938602 47.823135 47.698169
47.564500 47.421559 47.270272 47.110016 46.941844 46.765093 46.580941 46.388691
46.189645 45.983079 45.770414 45.550906 45.326089 45.095203 44.859886 44.619367
44.375374 44.127127 43.876434 43.622505 43.367209 43.109748 42.852035 42.593262
42.335368 42.077533 41.821703 41.567041 41.315486 41.066178 40.821030 40.579162
40.342439 40.109960 39.883530 39.662224 39.447771 39.239225 39.038226 38.843808
38.657514 38.478357 38.307775 38.144766 37.990655 37.844427 37.707292 37.578227
37.458321 37.346550 37.243879 37.149290 37.063625 36.985874 36.916759 36.855283
36.802048 36.756080 36.717861 36.686445 36.662199 36.644208 36.632729 36.626884
36.626822 36.631710 36.641593 36.655684 36.673931 36.695600 36.720544 36.748086
36.777990 36.809642 36.842721 36.876677 36.911111
37.288889 37.260160 37.231957 37.204724 37.179066 37.155335 37.134213 37.115955
37.101310 37.090436 37.084143 37.082483 37.086324 37.095607 37.111253 37.133086
37.162072 37.197916 37.241623 37.292774 37.352408 37.419976 37.496544 37.581433
37.675728 37.778617 37.891198 38.012524 38.143700 38.283644 38.433462 38.591936
38.760166 38.936806 39.122941 39.317099 39.520350 39.731098 39.950393 40.176528
40.410528 40.650583 40.897692 41.149954 41.408341 41.670878 41.938510 42.209200
42.483868 42.760438 43.039805 43.319871 43.601513 43.882628 44.164077 44.443778
44.722578 44.998433 45.272179 45.541832 45.808219 46.069434 46.326294 46.576987
46.822321 47.060589 47.292589 47.516730 47.733796 47.942321 48.143065 48.334696
48.517942 48.691607 48.856380 49.011202 49.156713 49.291992 49.417618 49.532807
49.638070 49.732757 49.817299 49.891182 49.954748 50.007614 50.050028 50.081737
50.102891 50.113363 50.113203 50.102410 50.080931 50.048892 50.006140 49.952928
49.889003 49.814748 49.729817 49.634723 49.529034 49.413395 49.287295 49.151515
49.005475 48.850091 48.684724 48.510430 48.326517 48.134180 47.932688 47.723371
47.505469 47.280443 47.047510 46.808258 46.561888 46.310106 46.052100 45.789685
45.522040 45.251071 44.975950 44.698663 44.418371 44.137118 43.854059 43.571276
43.287909 43.006063 42.724861 42.446404 42.169799 41.897126 41.627467 41.362864
41.102372 40.847976 40.598705 40.356469 40.120271 39.891931 39.670428 39.457480
39.252042 39.055723 38.867455 38.688728 38.518459 38.358013 38.206295 38.064540
37.931648 37.808721 37.694660 37.590435 37.494951 37.409047 37.331639 37.263436
37.203374 37.152030 37.108368 37.072839 37.044436 37.023490 37.009032 37.001273
36.999288 37.003175 37.012057 37.025923 37.043951 37.066025 37.091382 37.119809
37.150605 37.183465 37.217755 37.253083 37.288889
37.666667 37.637449 37.608757 37.581205 37.555225 37.531514 37.510404 37.492669
37.478536 37.468847 37.463722 37.464066 37.469882 37.482135 37.500705 37.526609
37.559602 37.600745 37.649662 37.707453 37.773605 37.849250 37.933736 38.028220
38.131906 38.245969 38.369469 38.503588 38.647243 38.801618 38.965486 39.140024
39.323861 39.518166 39.721427 39.934795 40.156625 40.388044 40.627281 40.875438
41.130625 41.393915 41.663314 41.939864 42.221480 42.509173 42.800784 43.097294
43.396490 43.699324 44.003548 44.310092 44.616694 44.924263 45.230547 45.536439
45.839720 46.141270 46.438925 46.733555 47.023070 47.308335 47.587352 47.860981
48.127332 48.387255 48.638985 48.883360 49.118747 49.345965 49.563523 49.772213
49.970691 50.159712 50.338080 50.506504 50.663935 50.811026 50.946876 51.072070
51.185849 51.288720 51.380069 51.460313 51.528976 51.586380 51.632186 51.666612
51.689456 51.700826 51.700655 51.688942 51.665752 51.630973 51.584806 51.527032
51.457986 51.377344 51.285580 51.182275 51.068039 50.942365 50.806009 50.658382
50.500384 50.331360 50.152357 49.962662 49.763471 49.554024 49.335666 49.107600
48.871317 48.625996 48.373267 48.112290 47.844830 47.570034 47.289791 47.003239
46.712377 46.416338 46.117211 45.814126 45.509246 45.201692 44.893684 44.584328
44.275879 43.967428 43.661239 43.356384 43.055115 42.756481 42.462699 42.172793
41.888926 41.610091 41.338380 41.072754 40.815217 40.564701 40.323105 40.089332
39.865167 39.649487 39.443951 39.247414 39.061405 38.884761 38.718872 38.562564
38.417088 38.281264 38.156199 38.040717 37.935782 37.840225 37.754868 37.678560
37.611983 37.554008 37.505179 37.464398 37.432077 37.407152 37.389907 37.379322
37.375557 37.377638 37.385608 37.398548 37.416386 37.438263 37.464000 37.492804
37.524392 37.558041 37.593371 37.629738 37.666667
38.044444 38.015022 37.986215 37.958542 37.932711 37.909137 37.888611 37.871441
37.858494 37.849964 37.846791 37.849047 37.857737 37.872806 37.895319 37.925087
37.963227 38.009414 38.064805 38.128936 38.203001 38.286386 38.380315 38.484025
38.598759 38.723601 38.859807 39.006306 39.164358 39.332737 39.512700 39.702865
39.904480 40.116009 40.338684 40.570822 40.813629 41.065283 41.326961 41.596709
41.875672 42.161774 42.456128 42.756550 43.064117 43.376557 43.694911 44.016838
44.343345 44.672041 45.003907 45.336524 45.670848 46.004460 46.338295 46.669957
47.000368 47.327179 47.651301 47.970457 48.285551 48.594399 48.897899 49.193978
49.483531 49.764610 50.038103 50.302202 50.557780 50.803180 51.039254 51.264499
51.479737 51.683624 51.876940 52.058500 52.229031 52.387506 52.534585 52.669398