# vtk DataFile Version 3.0
Steady-state temperature (Jacobi)
ASCII
DATASET STRUCTURED_POINTS
DIMENSIONS 181 181 1
ORIGIN 0.0 0.0 0.0
SPACING 0.05 0.05 1.0
POINT_DATA 32761
SCALARS Temperature float 1
LOOKUP_TABLE default
32.000000 32.000000 32.000000 32.000000 32.000000 32.000000 32.000000 32.000000
32.000000 32.000000 32.000000 32.000000 32.000000 32.000000 32.000000 32.000000
32.000000 32.000000 32.000000 32.000000 32.000000 32.000000 32.000000 32.000000
32.000000 32.000000 32.000000 32.000000 32.000000 32.000000 32.000000 32.000000
32.000000 32.000000 32.000000 32.000000 32.000000 32.000000 32.000000 32.000000
32.000000 32.000000 32.000000 32.000000 32.000000 32.000000 32.000000 32.000000
32.000000 32.000000 32.000000 32.000000 32.000000 32.000000 32.000000 32.000000
32.000000 32.000000 32.000000 32.000000 32.000000 32.000000 32.000000 32.000000
32.000000 32.000000 32.000000 32.000000 32.000000 32.000000 32.000000 32.000000
32.000000 32.000000 32.000000 32.000000 32.000000 32.000000 32.000000 32.000000
32.000000 32.000000 32.000000 32.000000 32.000000 32.000000 32.000000 32.000000
32.000000 32.000000 32.000000 32.000000 32.000000 32.000000 32.000000 32.000000
32.000000 32.000000 32.000000 32.000000 32.000000 32.000000 32.000000 32.000000
32.000000 32.000000 32.000000 32.000000 32.000000 32.000000 32.000000 32.000000
32.000000 32.000000 32.000000 32.000000 32.000000 32.000000 32.000000 32.000000
32.000000 32.000000 32.000000 32.000000 32.000000 32.000000 32.000000 32.000000
32.000000 32.000000 32.000000 32.000000 32.000000 32.000000 32.000000 32.000000
32.000000 32.000000 32.000000 32.000000 32.000000 32.000000 32.000000 32.000000
32.000000 32.000000 32.000000 32.000000 32.000000 32.000000 32.000000 32.000000
32.000000 32.000000 32.000000 32.000000 32.000000 32.000000 32.000000 32.000000
32.000000 32.000000 32.000000 32.000000 32.000000 32.000000 32.000000 32.000000
32.000000 32.000000 32.000000 32.000000 32.000000 32.000000 32.000000 32.000000
32.000000 32.000000 32.000000 32.000000 32.000000
32.377778 32.350885 32.324205 32.297948 32.272310 32.247477 32.223614 32.200865
32.179351 32.159165 32.140377 32.123029 32.107138 32.092696 32.079677 32.068034
32.057704 32.048611 32.040673 32.033796 32.027888 32.022852 32.018593 32.015020
32.012048 32.009594 32.007585 32.005953 32.004638 32.003587 32.002753 32.002098
32.001587 32.001191 32.000887 32.000656 32.000482 32.000351 32.000254 32.000182
32.000130 32.000092 32.000065 32.000045 32.000032 32.000022 32.000016 32.000012
32.000009 32.000007 32.000006 32.000005 32.000005 32.000005 32.000005 32.000005
32.000006 32.000006 32.000007 32.000007 32.000008 32.000008 32.000009 32.000009
32.000010 32.000010 32.000010 32.000011 32.000011 32.000011 32.000012 32.000012
32.000012 32.000012 32.000013 32.000013 32.000013 32.000013 32.000013 32.000013
32.000013 32.000013 32.000013 32.000013 32.000013 32.000013 32.000013 32.000013
32.000013 32.000013 32.000013 32.000013 32.000013 32.000013 32.000013 32.000013
32.000013 32.000013 32.000013 32.000013 32.000013 32.000013 32.000013 32.000013
32.000013 32.000013 32.000012 32.000012 32.000012 32.000012 32.000011 32.000011
32.000011 32.000010 32.000010 32.000010 32.000009 32.000009 32.000008 32.000008
32.000007 32.000007 32.000006 32.000006 32.000005 32.000005 32.000005 32.000005
32.000005 32.000005 32.000005 32.000006 32.000008 32.000011 32.000016 32.000022
32.000032 32.000045 32.000065 32.000092 32.000130 32.000182 32.000254 32.000351
32.000482 32.000656 32.000887 32.001191 32.001587 32.002098 32.002753 32.003587
32.004638 32.005953 32.007585 32.009594 32.012048 32.015020 32.018593 32.022852
32.027888 32.033796 32.040673 32.048611 32.057704 32.068034 32.079677 32.092696
32.107138 32.123029 32.140377 32.159165 32.179351 32.200865 32.223614 32.247477
32.272310 32.297948 32.324205 32.350885 32.377778
32.755556 32.701770 32.648411 32.595895 32.544620 32.494954 32.447228 32.401730
32.358701 32.318331 32.280755 32.246059 32.214276 32.185393 32.159355 32.136068
32.115407 32.097223 32.081345 32.067593 32.055776 32.045703 32.037186 32.030041
32.024096 32.019188 32.015170 32.011906 32.009276 32.007174 32.005507 32.004196
32.003173 32.002382 32.001775 32.001312 32.000963 32.000702 32.000507 32.000364
32.000260 32.000184 32.000130 32.000091 32.000064 32.000045 32.000032 32.000024
32.000018 32.000014 32.000012 32.000011 32.000011 32.000011 32.000011 32.000012
32.000013 32.000014 32.000015 32.000016 32.000017 32.000018 32.000019 32.000020
32.000021 32.000022 32.000023 32.000024 32.000025 32.000025 32.000026 32.000027
32.000027 32.000028 32.000028 32.000028 32.000029 32.000029 32.000029 32.000029
32.000030 32.000030 32.000030 32.000030 32.000030 32.000030 32.000030 32.000030
32.000030 32.000030 32.000030 32.000030 32.000030 32.000030 32.000030 32.000030
32.000030 32.000030 32.000030 32.000030 32.000029 32.000029 32.000029 32.000029
32.000028 32.000028 32.000028 32.000027 32.000027 32.000026 32.000025 32.000025
32.000024 32.000023 32.000022 32.000021 32.000020 32.000019 32.000018 32.000017
32.000016 32.000015 32.000014 32.000013 32.000012 32.000011 32.000010 32.000010
32.000010 32.000010 32.000011 32.000014 32.000017 32.000023 32.000032 32.000045
32.000064 32.000091 32.000129 32.000184 32.000259 32.000364 32.000507 32.000701
32.000963 32.001312 32.001775 32.002382 32.003173 32.004196 32.005507 32.007174
32.009276 32.011906 32.015170 32.019188 32.024096 32.030041 32.037186 32.045703
32.055776 32.067593 32.081345 32.097223 32.115407 32.136068 32.159355 32.185393
32.214276 32.246059 32.280755 32.318331 32.358701 32.401730 32.447228 32.494954
32.544620 32.595895 32.648411 32.701770 32.755556
33.133333 33.052655 32.972616 32.893843 32.816931 32.742431 32.670842 32.602595
32.538052 32.477496 32.421132 32.369088 32.321413 32.278089 32.239032 32.204102
32.173111 32.145834 32.122018 32.101389 32.083664 32.068555 32.055778 32.045061
32.036144 32.028782 32.022755 32.017859 32.013914 32.010760 32.008260 32.006294
32.004760 32.003573 32.002662 32.001969 32.001445 32.001053 32.000761 32.000547
32.000390 32.000277 32.000195 32.000137 32.000097 32.000069 32.000049 32.000037
32.000028 32.000023 32.000020 32.000019 32.000018 32.000019 32.000020 32.000021
32.000023 32.000025 32.000027 32.000029 32.000030 32.000032 32.000034 32.000036
32.000038 32.000040 32.000041 32.000043 32.000044 32.000045 32.000047 32.000048
32.000048 32.000049 32.000050 32.000051 32.000051 32.000052 32.000052 32.000052
32.000053 32.000053 32.000053 32.000053 32.000053 32.000053 32.000054 32.000054
32.000054 32.000054 32.000054 32.000054 32.000054 32.000054 32.000053 32.000053
32.000053 32.000053 32.000053 32.000053 32.000052 32.000052 32.000052 32.000051
32.000051 32.000050 32.000049 32.000048 32.000048 32.000047 32.000045 32.000044
32.000043 32.000041 32.000040 32.000038 32.000036 32.000034 32.000032 32.000030
32.000029 32.000026 32.000025 32.000023 32.000021 32.000019 32.000018 32.000017
32.000017 32.000017 32.000019 32.000022 32.000027 32.000035 32.000048 32.000068
32.000096 32.000137 32.000195 32.000276 32.000390 32.000546 32.000761 32.001052
32.001445 32.001969 32.002662 32.003573 32.004760 32.006294 32.008260 32.010760
32.013914 32.017859 32.022755 32.028782 32.036144 32.045061 32.055778 32.068555
32.083664 32.101389 32.122018 32.145834 32.173111 32.204102 32.239032 32.278089
32.321413 32.369088 32.421132 32.477496 32.538052 32.602595 32.670842 32.742431
32.816931 32.893843 32.972616 33.052655 33.133333
33.511111 33.403539 33.296821 33.191791 33.089241 32.989908 32.894456 32.803461
32.717403 32.636662 32.561510 32.492117 32.428551 32.370786 32.318710 32.272136
32.230815 32.194446 32.162691 32.135186 32.111552 32.091406 32.074371 32.060082
32.048192 32.038377 32.030340 32.023812 32.018551 32.014347 32.011014 32.008392
32.006347 32.004765 32.003550 32.002625 32.001927 32.001404 32.001016 32.000729
32.000521 32.000370 32.000261 32.000184 32.000131 32.000093 32.000068 32.000051
32.000041 32.000034 32.000031 32.000029 32.000030 32.000031 32.000033 32.000035
32.000038 32.000041 32.000044 32.000047 32.000051 32.000054 32.000057 32.000060
32.000063 32.000066 32.000069 32.000071 32.000073 32.000075 32.000077 32.000079
32.000081 32.000082 32.000083 32.000084 32.000085 32.000086 32.000087 32.000087
32.000088 32.000088 32.000088 32.000088 32.000089 32.000089 32.000089 32.000089
32.000089 32.000089 32.000089 32.000089 32.000089 32.000089 32.000089 32.000089
32.000088 32.000088 32.000088 32.000088 32.000087 32.000087 32.000086 32.000085
32.000084 32.000083 32.000082 32.000081 32.000079 32.000077 32.000075 32.000073
32.000071 32.000069 32.000066 32.000063 32.000060 32.000057 32.000054 32.000051
32.000047 32.000044 32.000041 32.000038 32.000035 32.000032 32.000030 32.000028
32.000027 32.000027 32.000028 32.000032 32.000039 32.000050 32.000066 32.000092
32.000129 32.000183 32.000260 32.000369 32.000520 32.000729 32.001015 32.001404
32.001927 32.002625 32.003550 32.004764 32.006347 32.008392 32.011014 32.014347
32.018551 32.023811 32.030340 32.038377 32.048191 32.060082 32.074371 32.091406
32.111552 32.135186 32.162691 32.194446 32.230815 32.272136 32.318710 32.370786
32.428551 32.492117 32.561510 32.636662 32.717403 32.803461 32.894456 32.989908
33.089241 33.191791 33.296821 33.403539 33.511111
33.888889 33.754424 33.621027 33.489738 33.361551 33.237385 33.118070 33.004326
32.896754 32.795827 32.701887 32.615146 32.535689 32.463482 32.398387 32.340170
32.288518 32.243057 32.203364 32.168982 32.139440 32.114258 32.092964 32.075102
32.060239 32.047971 32.037925 32.029764 32.023189 32.017934 32.013767 32.010491
32.007934 32.005956 32.004438 32.003282 32.002409 32.001756 32.001270 32.000913
32.000652 32.000464 32.000329 32.000233 32.000166 32.000120 32.000089 32.000069
32.000056 32.000049 32.000046 32.000045 32.000046 32.000049 32.000052 32.000057
32.000061 32.000066 32.000071 32.000077 32.000082 32.000087 32.000092 32.000097
32.000102 32.000107 32.000111 32.000115 32.000118 32.000122 32.000125 32.000128
32.000130 32.000132 32.000134 32.000136 32.000137 32.000139 32.000140 32.000141
32.000141 32.000142 32.000142 32.000143 32.000143 32.000143 32.000144 32.000144
32.000144 32.000144 32.000144 32.000144 32.000144 32.000144 32.000143 32.000143
32.000143 32.000142 32.000142 32.000141 32.000141 32.000140 32.000139 32.000137
32.000136 32.000134 32.000132 32.000130 32.000128 32.000125 32.000122 32.000118
32.000115 32.000111 32.000107 32.000102 32.000097 32.000092 32.000087 32.000082
32.000077 32.000071 32.000066 32.000061 32.000056 32.000051 32.000048 32.000044
32.000042 32.000041 32.000042 32.000045 32.000053 32.000066 32.000087 32.000118
32.000164 32.000231 32.000327 32.000462 32.000651 32.000912 32.001270 32.001755
32.002409 32.003281 32.004437 32.005956 32.007934 32.010490 32.013767 32.017934
32.023189 32.029764 32.037925 32.047971 32.060239 32.075102 32.092964 32.114258
32.139440 32.168982 32.203364 32.243057 32.288518 32.340170 32.398387 32.463482
32.535689 32.615146 32.701887 32.795827 32.896754 33.004326 33.118070 33.237385
33.361551 33.489738 33.621027 33.754424 33.888889
34.266667 34.105309 33.945232 33.787686 33.633861 33.484862 33.341684 33.205191
33.076104 32.954992 32.842265 32.738176 32.642827 32.556179 32.478064 32.408204
32.346222 32.291669 32.244036 32.202779 32.167328 32.137109 32.111557 32.090123
32.072287 32.057565 32.045510 32.035717 32.027827 32.021521 32.016521 32.012589
32.009521 32.007148 32.005326 32.003939 32.002892 32.002108 32.001526 32.001098
32.000785 32.000559 32.000398 32.000284 32.000205 32.000150 32.000114 32.000091
32.000077 32.000070 32.000068 32.000068 32.000072 32.000076 32.000083 32.000089
32.000097 32.000105 32.000114 32.000122 32.000130 32.000138 32.000147 32.000154
32.000162 32.000169 32.000176 32.000182 32.000188 32.000194 32.000199 32.000203
32.000207 32.000210 32.000214 32.000216 32.000218 32.000220 32.000222 32.000223
32.000225 32.000226 32.000226 32.000227 32.000227 32.000228 32.000228 32.000228
32.000228 32.000229 32.000229 32.000228 32.000228 32.000228 32.000228 32.000227
32.000227 32.000226 32.000226 32.000225 32.000223 32.000222 32.000220 32.000218
32.000216 32.000214 32.000210 32.000207 32.000203 32.000199 32.000194 32.000188
32.000182 32.000176 32.000169 32.000162 32.000154 32.000147 32.000138 32.000130
32.000122 32.000113 32.000105 32.000097 32.000089 32.000082 32.000074 32.000069
32.000064 32.000062 32.000061 32.000064 32.000072 32.000087 32.000110 32.000147
32.000201 32.000281 32.000396 32.000557 32.000783 32.001096 32.001525 32.002107
32.002891 32.003938 32.005325 32.007147 32.009521 32.012589 32.016521 32.021521
32.027827 32.035717 32.045510 32.057565 32.072287 32.090123 32.111557 32.137109
32.167328 32.202779 32.244036 32.291669 32.346222 32.408204 32.478064 32.556179
32.642827 32.738176 32.842265 32.954992 33.076104 33.205191 33.341684 33.484862
33.633861 33.787686 33.945232 34.105309 34.266667
34.644444 34.456194 34.269437 34.085633 33.906171 33.732340 33.565298 33.406056
33.255455 33.114158 32.982642 32.861205 32.749965 32.648875 32.557742 32.476238
32.403926 32.340280 32.284709 32.236575 32.195216 32.159961 32.130150 32.105143
32.084335 32.067159 32.053095 32.041671 32.032466 32.025108 32.019275 32.014688
32.011109 32.008340 32.006215 32.004597 32.003376 32.002462 32.001783 32.001284
32.000920 32.000658 32.000471 32.000339 32.000247 32.000186 32.000145 32.000120
32.000106 32.000100 32.000099 32.000103 32.000109 32.000119 32.000129 32.000141
32.000152 32.000166 32.000178 32.000192 32.000205 32.000219 32.000231 32.000244
32.000255 32.000267 32.000277 32.000287 32.000296 32.000305 32.000312 32.000320
32.000325 32.000331 32.000336 32.000340 32.000343 32.000347 32.000349 32.000351
32.000353 32.000355 32.000356 32.000357 32.000358 32.000358 32.000359 32.000359
32.000359 32.000359 32.000359 32.000359 32.000359 32.000359 32.000358 32.000358
32.000357 32.000356 32.000355 32.000353 32.000351 32.000349 32.000347 32.000343
32.000340 32.000336 32.000331 32.000325 32.000320 32.000312 32.000305 32.000296
32.000287 32.000277 32.000267 32.000255 32.000244 32.000231 32.000218 32.000205
32.000192 32.000178 32.000165 32.000152 32.000140 32.000127 32.000117 32.000106
32.000099 32.000092 32.000090 32.000091 32.000098 32.000113 32.000139 32.000180
32.000242 32.000334 32.000467 32.000654 32.000917 32.001282 32.001781 32.002460
32.003375 32.004596 32.006214 32.008339 32.011108 32.014687 32.019275 32.025108
32.032465 32.041670 32.053095 32.067159 32.084335 32.105143 32.130150 32.159961
32.195216 32.236575 32.284709 32.340280 32.403926 32.476238 32.557742 32.648875
32.749965 32.861205 32.982642 33.114158 33.255455 33.406056 33.565298 33.732340
33.906171 34.085633 34.269437 34.456194 34.644444
35.022222 34.807079 34.593643 34.383581 34.178482 33.979817 33.788912 33.606921
33.434806 33.273323 33.123020 32.984234 32.857102 32.741572 32.637419 32.544272
32.461629 32.388892 32.325382 32.270372 32.223104 32.182812 32.148743 32.120164
32.096383 32.076753 32.060680 32.047624 32.037104 32.028696 32.022029 32.016787
32.012697 32.009533 32.007104 32.005256 32.003861 32.002817 32.002043 32.001473
32.001059 32.000760 32.000548 32.000399 32.000297 32.000229 32.000186 32.000159
32.000147 32.000143 32.000148 32.000155 32.000168 32.000183 32.000200 32.000218
32.000238 32.000258 32.000279 32.000299 32.000321 32.000340 32.000361 32.000379
32.000399 32.000416 32.000433 32.000448 32.000463 32.000475 32.000487 32.000498
32.000508 32.000516 32.000524 32.000530 32.000536 32.000540 32.000544 32.000548
32.000551 32.000553 32.000555 32.000556 32.000558 32.000558 32.000559 32.000560
32.000560 32.000560 32.000560 32.000560 32.000560 32.000559 32.000558 32.000558
32.000556 32.000555 32.000553 32.000551 32.000548 32.000544 32.000540 32.000536
32.000530 32.000524 32.000516 32.000508 32.000498 32.000487 32.000475 32.000463
32.000448 32.000433 32.000416 32.000399 32.000379 32.000361 32.000340 32.000321
32.000299 32.000279 32.000257 32.000238 32.000217 32.000199 32.000180 32.000165
32.000150 32.000140 32.000132 32.000130 32.000134 32.000148 32.000175 32.000220
32.000289 32.000392 32.000541 32.000755 32.001054 32.001469 32.002039 32.002814
32.003859 32.005254 32.007103 32.009532 32.012696 32.016786 32.022029 32.028695
32.037103 32.047623 32.060680 32.076753 32.096383 32.120164 32.148743 32.182812
32.223104 32.270372 32.325382 32.388892 32.461629 32.544272 32.637419 32.741572
32.857102 32.984234 33.123020 33.273323 33.434806 33.606921 33.788912 33.979817
34.178482 34.383581 34.593643 34.807079 35.022222
35.400000 35.157964 34.917848 34.681529 34.450792 34.227294 34.012526 33.807786
33.614157 33.432488 33.263397 33.107264 32.964240 32.834268 32.717097 32.612306
32.519333 32.437503 32.366055 32.304168 32.250992 32.205664 32.167336 32.135185
32.108431 32.086348 32.068265 32.053577 32.041742 32.032283 32.024784 32.018886
32.014286 32.010727 32.007995 32.005917 32.004348 32.003175 32.002305 32.001666
32.001201 32.000868 32.000632 32.000468 32.000356 32.000284 32.000239 32.000216
32.000206 32.000209 32.000218 32.000236 32.000256 32.000282 32.000307 32.000338
32.000367 32.000400 32.000431 32.000464 32.000495 32.000528 32.000557 32.000588
32.000616 32.000644 32.000668 32.000693 32.000714 32.000736 32.000753 32.000770
32.000784 32.000798 32.000809 32.000819 32.000828 32.000835 32.000841 32.000847
32.000851 32.000854 32.000857 32.000860 32.000861 32.000863 32.000864 32.000865
32.000865 32.000866 32.000866 32.000865 32.000865 32.000864 32.000863 32.000861
32.000860 32.000857 32.000854 32.000851 32.000847 32.000841 32.000835 32.000828
32.000819 32.000809 32.000798 32.000784 32.000770 32.000753 32.000736 32.000714
32.000693 32.000668 32.000644 32.000616 32.000588 32.000557 32.000528 32.000495
32.000464 32.000430 32.000400 32.000366 32.000337 32.000306 32.000279 32.000252
32.000230 32.000210 32.000196 32.000186 32.000187 32.000197 32.000223 32.000269
32.000344 32.000456 32.000622 32.000860 32.001195 32.001660 32.002300 32.003171
32.004345 32.005914 32.007993 32.010725 32.014285 32.018885 32.024783 32.032283
32.041742 32.053577 32.068265 32.086348 32.108431 32.135184 32.167335 32.205664
32.250992 32.304168 32.366055 32.437503 32.519333 32.612306 32.717097 32.834268
32.964240 33.107264 33.263397 33.432488 33.614157 33.807786 34.012526 34.227294
34.450792 34.681529 34.917848 35.157964 35.400000
35.777778 35.508848 35.242053 34.979476 34.723102 34.474771 34.236140 34.008651
33.793507 33.591654 33.403775 33.230293 33.071378 32.926965 32.796774 32.680340
32.577037 32.486115 32.406727 32.337965 32.278880 32.228516 32.185929 32.150205
32.120480 32.095942 32.075851 32.059531 32.046381 32.035872 32.027539 32.020987
32.015876 32.011922 32.008888 32.006580 32.004839 32.003536 32.002572 32.001864
32.001352 32.000984 32.000727 32.000548 32.000431 32.000355 32.000314 32.000294
32.000293 32.000304 32.000327 32.000354 32.000391 32.000428 32.000473 32.000516
32.000565 32.000612 32.000663 32.000711 32.000762 32.000808 32.000858 32.000901
32.000947 32.000987 32.001027 32.001062 32.001097 32.001127 32.001156 32.001180
32.001204 32.001223 32.001241 32.001256 32.001269 32.001280 32.001290 32.001297
32.001304 32.001310 32.001314 32.001318 32.001321 32.001323 32.001324 32.001326
32.001326 32.001327 32.001327 32.001326 32.001326 32.001324 32.001323 32.001321
32.001318 32.001314 32.001310 32.001304 32.001297 32.001290 32.001280 32.001269
32.001256 32.001241 32.001223 32.001204 32.001180 32.001156 32.001127 32.001097
32.001062 32.001027 32.000987 32.000947 32.000901 32.000858 32.000808 32.000762
32.000711 32.000663 32.000611 32.000565 32.000515 32.000471 32.000425 32.000386
32.000348 32.000317 32.000289 32.000272 32.000262 32.000267 32.000288 32.000334
32.000410 32.000532 32.000711 32.000972 32.001341 32.001856 32.002564 32.003530
32.004833 32.006576 32.008885 32.011919 32.015874 32.020985 32.027538 32.035870
32.046380 32.059530 32.075850 32.095942 32.120479 32.150205 32.185928 32.228516
32.278880 32.337965 32.406727 32.486115 32.577037 32.680340 32.796774 32.926965
33.071378 33.230293 33.403775 33.591654 33.793507 34.008651 34.236140 34.474771
34.723102 34.979476 35.242053 35.508848 35.777778
36.155556 35.859733 35.566259 35.277424 34.995412 34.722248 34.459754 34.209517
33.972858 33.750819 33.544152 33.353322 33.178516 33.019661 32.876452 32.748373
32.634740 32.534726 32.447400 32.371761 32.306768 32.251367 32.204522 32.165226
32.132528 32.105537 32.083436 32.065485 32.051021 32.039461 32.030296 32.023089
32.017468 32.013120 32.009784 32.007247 32.005333 32.003904 32.002846 32.002072
32.001512 32.001114 32.000836 32.000649 32.000526 32.000454 32.000417 32.000409
32.000419 32.000448 32.000485 32.000535 32.000588 32.000652 32.000716 32.000789
32.000858 32.000935 32.001007 32.001086 32.001158 32.001234 32.001303 32.001376
32.001439 32.001505 32.001562 32.001619 32.001668 32.001717 32.001757 32.001797
32.001830 32.001862 32.001887 32.001911 32.001930 32.001947 32.001961 32.001974
32.001983 32.001992 32.001998 32.002004 32.002008 32.002011 32.002014 32.002016
32.002017 32.002017 32.002017 32.002017 32.002016 32.002014 32.002011 32.002008
32.002004 32.001998 32.001992 32.001983 32.001974 32.001961 32.001947 32.001930
32.001911 32.001887 32.001862 32.001830 32.001797 32.001757 32.001717 32.001668
32.001619 32.001562 32.001505 32.001439 32.001376 32.001303 32.001234 32.001158
32.001086 32.001007 32.000935 32.000857 32.000787 32.000714 32.000649 32.000584
32.000528 32.000474 32.000432 32.000395 32.000374 32.000365 32.000380 32.000419
32.000497 32.000621 32.000814 32.001094 32.001496 32.002058 32.002835 32.003894
32.005325 32.007240 32.009779 32.013115 32.017464 32.023086 32.030294 32.039459
32.051020 32.065484 32.083436 32.105537 32.132528 32.165226 32.204521 32.251367
32.306768 32.371761 32.447400 32.534726 32.634740 32.748373 32.876452 33.019661
33.178516 33.353322 33.544152 33.750819 33.972858 34.209517 34.459754 34.722248
34.995412 35.277424 35.566259 35.859733 36.155556
36.533333 36.210618 35.890464 35.575372 35.267722 34.969725 34.683368 34.410382
34.152209 33.909985 33.684530 33.476351 33.285654 33.112358 32.956129 32.816407
32.692444 32.583338 32.488073 32.405558 32.334656 32.274219 32.223115 32.180247
32.144577 32.115132 32.091023 32.071440 32.055661 32.043051 32.033054 32.025193
32.019062 32.014320 32.010684 32.007918 32.005835 32.004279 32.003131 32.002292
32.001689 32.001262 32.000970 32.000774 32.000655 32.000588 32.000567 32.000573
32.000607 32.000655 32.000724 32.000798 32.000889 32.000980 32.001085 32.001187
32.001301 32.001409 32.001527 32.001637 32.001754 32.001861 32.001974 32.002074
32.002178 32.002269 32.002362 32.002442 32.002522 32.002589 32.002656 32.002711
32.002764 32.002807 32.002849 32.002882 32.002913 32.002937 32.002960 32.002977
32.002993 32.003004 32.003015 32.003022 32.003029 32.003034 32.003038 32.003040
32.003042 32.003043 32.003043 32.003042 32.003040 32.003038 32.003034 32.003029
32.003022 32.003015 32.003004 32.002993 32.002977 32.002960 32.002937 32.002913
32.002882 32.002849 32.002807 32.002764 32.002711 32.002656 32.002589 32.002522
32.002442 32.002362 32.002269 32.002178 32.002074 32.001974 32.001861 32.001754
32.001637 32.001527 32.001409 32.001300 32.001186 32.001083 32.000977 32.000884
32.000790 32.000712 32.000638 32.000581 32.000534 32.000511 32.000508 32.000539
32.000608 32.000736 32.000934 32.001233 32.001663 32.002271 32.003112 32.004265
32.005822 32.007909 32.010675 32.014314 32.019057 32.025189 32.033050 32.043048
32.055659 32.071438 32.091022 32.115132 32.144576 32.180247 32.223114 32.274219
32.334656 32.405558 32.488073 32.583338 32.692444 32.816407 32.956129 33.112358
33.285654 33.476351 33.684530 33.909985 34.152209 34.410382 34.683368 34.969725
35.267722 35.575372 35.890464 36.210618 36.533333
36.911111 36.561503 36.214669 35.873319 35.540033 35.217202 34.906982 34.611247
34.331559 34.069150 33.824907 33.599381 33.392791 33.205054 33.035806 32.884441
32.750148 32.631949 32.528746 32.439354 32.362544 32.297071 32.241708 32.195268
32.156625 32.124728 32.098610 32.077395 32.060303 32.046642 32.035813 32.027299
32.020660 32.015526 32.011589 32.008598 32.006346 32.004668 32.003430 32.002531
32.001887 32.001439 32.001134 32.000942 32.000828 32.000782 32.000777 32.000816
32.000876 32.000967 32.001068 32.001194 32.001323 32.001473 32.001620 32.001786
32.001945 32.002120 32.002284 32.002461 32.002624 32.002797 32.002953 32.003115
32.003259 32.003406 32.003534 32.003663 32.003773 32.003882 32.003973 32.004063
32.004136 32.004206 32.004263 32.004316 32.004359 32.004398 32.004429 32.004457
32.004478 32.004497 32.004511 32.004524 32.004533 32.004541 32.004546 32.004550
32.004552 32.004554 32.004554 32.004552 32.004550 32.004546 32.004541 32.004533
32.004524 32.004511 32.004497 32.004478 32.004457 32.004429 32.004398 32.004359
32.004316 32.004263 32.004206 32.004136 32.004063 32.003973 32.003882 32.003773
32.003663 32.003534 32.003406 32.003258 32.003115 32.002952 32.002797 32.002624
32.002461 32.002284 32.002120 32.001944 32.001785 32.001618 32.001469 32.001318
32.001186 32.001056 32.000948 32.000848 32.000774 32.000717 32.000694 32.000702
32.000763 32.000880 32.001084 32.001393 32.001850 32.002498 32.003404 32.004645
32.006328 32.008583 32.011578 32.015516 32.020652 32.027293 32.035809 32.046639
32.060300 32.077393 32.098608 32.124727 32.156625 32.195268 32.241708 32.297071
32.362544 32.439354 32.528746 32.631949 32.750148 32.884441 33.035806 33.205054
33.392791 33.599381 33.824907 34.069150 34.331559 34.611247 34.906982 35.217202
35.540033 35.873319 36.214669 36.561503 36.911111
37.288889 36.912388 36.538875 36.171267 35.812343 35.464679 35.130596 34.812112
34.510910 34.228315 33.965285 33.722410 33.499929 33.297751 33.115484 32.952475
32.807851 32.680561 32.569419 32.473151 32.390432 32.319923 32.260302 32.210290
32.168675 32.134324 32.106198 32.083352 32.064946 32.050236 32.038577 32.029410
32.022263 32.016738 32.012505 32.009288 32.006872 32.005072 32.003752 32.002795
32.002120 32.001653 32.001350 32.001162 32.001074 32.001049 32.001087 32.001159
32.001277 32.001412 32.001584 32.001762 32.001972 32.002182 32.002419 32.002649
32.002904 32.003146 32.003409 32.003653 32.003914 32.004151 32.004401 32.004624
32.004854 32.005056 32.005261 32.005437 32.005614 32.005763 32.005909 32.006031
32.006148 32.006244 32.006335 32.006408 32.006476 32.006529 32.006578 32.006616
32.006650 32.006676 32.006699 32.006716 32.006731 32.006741 32.006749 32.006755
32.006759 32.006760 32.006760 32.006759 32.006755 32.006749 32.006741 32.006731
32.006716 32.006699 32.006676 32.006650 32.006616 32.006578 32.006529 32.006476
32.006408 32.006335 32.006244 32.006148 32.006031 32.005909 32.005763 32.005614
32.005437 32.005261 32.005056 32.004854 32.004624 32.004401 32.004151 32.003914
32.003653 32.003409 32.003146 32.002903 32.002648 32.002417 32.002178 32.001967
32.001753 32.001570 32.001392 32.001247 32.001115 32.001022 32.000954 32.000938
32.000969 32.001077 32.001270 32.001589 32.002062 32.002749 32.003711 32.005040
32.006843 32.009267 32.012486 32.016724 32.022251 32.029401 32.038569 32.050231
32.064942 32.083349 32.106195 32.134323 32.168674 32.210289 32.260301 32.319923
32.390432 32.473151 32.569419 32.680561 32.807851 32.952475 33.115484 33.297751
33.499929 33.722410 33.965285 34.228315 34.510910 34.812112 35.130596 35.464679
35.812343 36.171267 36.538875 36.912388 37.288889
37.666667 37.263273 36.863080 36.469214 36.084653 35.712156 35.354210 35.012977
34.690261 34.387481 34.105662 33.845439 33.607067 33.390447 33.195161 33.020510
32.865555 32.729172 32.610092 32.506948 32.418321 32.342776 32.278896 32.225312
32.180725 32.143922 32.113787 32.089311 32.069592 32.053834 32.041344 32.031527
32.023874 32.017961 32.013431 32.009996 32.007416 32.005504 32.004103 32.003101
32.002396 32.001928 32.001628 32.001471 32.001409 32.001438 32.001520 32.001668
32.001844 32.002074 32.002316 32.002606 32.002898 32.003232 32.003560 32.003925
32.004276 32.004660 32.005020 32.005407 32.005764 32.006141 32.006482 32.006835
32.007149 32.007469 32.007749 32.008029 32.008269 32.008505 32.008704 32.008897
32.009056 32.009208 32.009331 32.009446 32.009538 32.009623 32.009689 32.009749
32.009795 32.009836 32.009867 32.009894 32.009913 32.009930 32.009941 32.009950
32.009955 32.009958 32.009958 32.009955 32.009950 32.009941 32.009930 32.009913
32.009894 32.009867 32.009836 32.009795 32.009749 32.009689 32.009623 32.009538
32.009446 32.009331 32.009208 32.009056 32.008897 32.008704 32.008505 32.008269
32.008029 32.007749 32.007469 32.007149 32.006835 32.006482 32.006141 32.005764
32.005407 32.005020 32.004659 32.004275 32.003924 32.003557 32.003228 32.002891
32.002596 32.002302 32.002052 32.001812 32.001620 32.001450 32.001337 32.001263
32.001264 32.001336 32.001518 32.001827 32.002316 32.003028 32.004046 32.005453
32.007377 32.009962 32.013405 32.017938 32.023857 32.031513 32.041334 32.053826
32.069586 32.089306 32.113783 32.143919 32.180723 32.225311 32.278895 32.342775
32.418320 32.506948 32.610092 32.729172 32.865555 33.020509 33.195161 33.390447
33.607067 33.845439 34.105662 34.387481 34.690261 35.012977 35.354210 35.712156
36.084653 36.469214 36.863080 37.263273 37.666667
38.044444 37.614157 37.187285 36.767162 36.356963 35.959633 35.577824 35.213842
34.869612 34.546646 34.246040 33.968469 33.714205 33.483144 33.274839 33.088544
32.923259 32.777784 32.650765 32.540745 32.446210 32.365628 32.297490 32.240335
32.192777 32.153521 32.121378 32.095273 32.074242 32.057436 32.044119 32.033651
32.025496 32.019196 32.014377 32.010724 32.007992 32.005968 32.004503 32.003456
32.002745 32.002276 32.002012 32.001886 32.001891 32.001976 32.002155 32.002380
32.002680 32.003004 32.003395 32.003796 32.004259 32.004718 32.005234 32.005735
32.006285 32.006809 32.007375 32.007903 32.008462 32.008975 32.009509 32.009990
32.010482 32.010917 32.011355 32.011734 32.012111 32.012430 32.012742 32.013002
32.013252 32.013456 32.013650 32.013804 32.013949 32.014062 32.014167 32.014247