<?xml version="1.0"?>
<VTKFile type="ImageData" version="0.1" byte_order="LittleEndian">
  <ImageData WholeExtent="0 180 0 180 0 0" Origin="0.0 0.0 0.0" Spacing="0.05 0.05 1">
    <Piece Extent="0 180 0 180 0 0">
      <PointData Scalars="Temperature">
        <DataArray type="Float32" Name="Temperature" format="ascii">
32.000000 32.000000 32.000000 32.000000 32.000000 32.000000 32.000000 32.000000 32.000000 32.000000 32.000000 32.000000 32.000000 32.000000 32.000000 32.000000 32.000000 32.000000 32.000000 32.000000 32.000000 32.000000 32.000000 32.000000 32.000000 32.000000 32.000000 32.000000 32.000000 32.000000 32.000000 32.000000 32.000000 32.000000 32.000000 32.000000 32.000000 32.000000 32.000000 32.000000 32.000000 32.000000 32.000000 32.000000 32.000000 32.000000 32.000000 32.000000 32.000000 32.000000 32.000000 32.000000 32.000000 32.000000 32.000000 32.000000 32.000000 32.000000 32.000000 32.000000 32.000000 32.000000 32.000000 32.000000 32.000000 32.000000 32.000000 32.000000 32.000000 32.000000 32.000000 32.000000 32.000000 32.000000 32.000000 32.000000 32.000000 32.000000 32.000000 32.000000 32.000000 32.000000 32.000000 32.000000 32.000000 32.000000 32.000000 32.000000 32.000000 32.000000 32.000000 32.000000 32.000000 32.000000 32.000000 32.000000 32.000000 32.000000 32.000000 32.000000 32.000000 32.000000 32.000000 32.000000 32.000000 32.000000 32.000000 32.000000 32.000000 32.000000 32.000000 32.000000 32.000000 32.000000 32.000000 32.000000 32.000000 32.000000 32.000000 32.000000 32.000000 32.000000 32.000000 32.000000 32.000000 32.000000 32.000000 32.000000 32.000000 32.000000 32.000000 32.000000 32.000000 32.000000 32.000000 32.000000 32.000000 32.000000 32.000000 32.000000 32.000000 32.000000 32.000000 32.000000 32.000000 32.000000 32.000000 32.000000 32.000000 32.000000 32.000000 32.000000 32.000000 32.000000 32.000000 32.000000 32.000000 32.000000 32.000000 32.000000 32.000000 32.000000 32.000000 32.000000 32.000000 32.000000 32.000000 32.000000 32.000000 32.000000 32.000000 32.000000 32.000000 32.000000 32.000000 32.000000 32.000000 32.000000 32.000000 32.000000 32.000000
32.377778 32.397846 32.417929 32.438047 32.458213 32.478446 32.498757 32.519169 32.539689 32.560340 32.581126 32.602072 32.623180 32.644472 32.665949 32.687633 32.709521 32.731635 32.753968 32.776544 32.799349 32.822406 32.845700 32.869252 32.893042 32.917090 32.941373 32.965909 32.990671 33.015675 33.040890 33.066331 33.091962 33.117797 33.143796 33.169971 33.196278 33.222727 33.249272 33.275919 33.302620 33.329380 33.356148 33.382925 33.409659 33.436352 33.462947 33.489445 33.515789 33.541979 33.567956 33.593719 33.619212 33.644430 33.669319 33.693873 33.718039 33.741813 33.765142 33.788022 33.810403 33.832280 33.853608 33.874382 33.894557 33.914133 33.933066 33.951357 33.968967 33.985895 34.002107 34.017604 34.032355 34.046361 34.059594 34.072058 34.083727 34.094604 34.104670 34.113926 34.122356 34.129962 34.136730 34.142664 34.147751 34.151996 34.155389 34.157933 34.159622 34.160458 34.160440 34.159567 34.157840 34.155260 34.151830 34.147550 34.142426 34.136456 34.129652 34.122011 34.113547 34.104257 34.094158 34.083248 34.071547 34.059053 34.045789 34.031754 34.016976 34.001453 33.985216 33.968265 33.950634 33.932325 33.913374 33.893785 33.873597 33.852815 33.831482 33.809602 33.787222 33.764348 33.741028 33.717268 33.693121 33.668591 33.643732 33.618548 33.593097 33.567382 33.541459 33.515332 33.489058 33.462638 33.436129 33.409533 33.382904 33.356241 33.329599 33.302976 33.276422 33.249933 33.223560 33.197295 33.171185 33.145221 33.119446 33.093850 33.068473 33.043302 33.018373 32.993670 32.969227 32.945026 32.921096 32.897418 32.874018 32.850873 32.828006 32.805394 32.783055 32.760965 32.739137 32.717548 32.696206 32.675088 32.654199 32.633514 32.613035 32.592738 32.572622 32.552661 32.532852 32.513171 32.493611 32.474148 32.454772 32.435463 32.416207 32.396983 32.377778
32.755556 32.795703 32.835885 32.876131 32.916479 32.956954 32.997596 33.038426 33.079488 33.120794 33.162392 33.204288 33.246529 33.289117 33.332100 33.375471 33.419278 33.463509 33.508210 33.553362 33.599009 33.645125 33.691754 33.738858 33.786482 33.834580 33.883191 33.932265 33.981837 34.031847 34.082328 34.133212 34.184528 34.236201 34.288256 34.340609 34.393281 34.446184 34.499334 34.552634 34.606098 34.659624 34.713221 34.766783 34.820314 34.873706 34.926960 34.979964 35.032715 35.085102 35.137119 35.188654 35.239699 35.290144 35.339979 35.389095 35.437484 35.485039 35.531750 35.577516 35.622328 35.666088 35.708790 35.750341 35.790736 35.829889 35.867797 35.904379 35.939635 35.973491 36.005948 36.036941 36.066471 36.094481 36.120974 36.145898 36.169258 36.191010 36.211159 36.229668 36.246542 36.261752 36.275300 36.287165 36.297349 36.305836 36.312628 36.317714 36.321096 36.322768 36.322731 36.320985 36.317530 36.312370 36.305505 36.296946 36.286689 36.274753 36.261134 36.245854 36.228911 36.210334 36.190118 36.168301 36.144877 36.119891 36.093339 36.065272 36.035686 36.004641 35.972135 35.938233 35.902935 35.866315 35.828374 35.789192 35.748774 35.707205 35.664492 35.620727 35.575918 35.530163 35.483470 35.435944 35.387593 35.338525 35.288748 35.238374 35.187411 35.135973 35.084065 35.031803 34.979191 34.926344 34.873264 34.820063 34.766742 34.713410 34.660064 34.606810 34.553642 34.500659 34.447853 34.395318 34.343039 34.291107 34.239502 34.188308 34.137500 34.087155 34.037245 33.987838 33.938903 33.890500 33.842594 33.795238 33.748393 33.702104 33.656329 33.611106 33.566389 33.522208 33.478517 33.435338 33.392622 33.350385 33.308576 33.267204 33.226220 33.185623 33.145365 33.105440 33.065801 33.026433 32.987293 32.948360 32.909592 32.870964 32.832436 32.793979 32.755556
33.133333 33.193588 33.253891 33.314296 33.374845 33.435596 33.496585 33.557874 33.619489 33.681497 33.743915 33.806811 33.870194 33.934134 33.998627 34.063746 34.129477 34.195891 34.262963 34.330764 34.399256 34.468508 34.538473 34.609214 34.680673 34.752909 34.825852 34.899558 34.973944 35.049060 35.124811 35.201244 35.278251 35.355871 35.433988 35.512634 35.591681 35.671155 35.750920 35.830994 35.911232 35.991648 36.072088 36.152559 36.232903 36.313121 36.393048 36.472683 36.551859 36.630567 36.708640 36.786069 36.862684 36.938473 37.013271 37.087065 37.159690 37.231135 37.301242 37.369997 37.437251 37.502992 37.567077 37.629497 37.690117 37.748932 37.805816 37.860767 37.913669 37.964523 38.013224 38.059774 38.104081 38.146148 38.185895 38.223326 38.258372 38.291038 38.321265 38.349060 38.374373 38.397211 38.417535 38.435350 38.450627 38.463370 38.473558 38.481195 38.486268 38.488779 38.488724 38.486103 38.480920 38.473173 38.462875 38.450023 38.434638 38.416716 38.396286 38.373342 38.347926 38.320029 38.289702 38.256938 38.221797 38.184273 38.144437 38.102284 38.057894 38.011266 37.962491 37.911569 37.858604 37.803597 37.746662 37.687805 37.627150 37.564703 37.500602 37.434854 37.367605 37.298865 37.228787 37.157384 37.084815 37.011093 36.936384 36.860700 36.784210 36.706925 36.629017 36.550495 36.471530 36.392129 36.312462 36.232531 36.152503 36.072377 35.992314 35.912306 35.832511 35.752913 35.673663 35.594741 35.516286 35.438272 35.360830 35.283926 35.207683 35.132058 35.057164 34.982952 34.909523 34.836823 34.764940 34.693816 34.623526 34.554008 34.485325 34.417410 34.350316 34.283971 34.218416 34.153579 34.089488 34.026068 33.963338 33.901222 33.839727 33.778779 33.718373 33.658437 33.598957 33.539862 33.481128 33.422690 33.364513 33.306535 33.248717 33.190998 33.133333
33.511111 33.591509 33.671976 33.752571 33.833370 33.914425 33.995816 34.077585 34.159818 34.242544 34.325853 34.409763 34.494366 34.579667 34.665759 34.752633 34.840383 34.928985 35.018532 35.108985 35.200434 35.292826 35.386248 35.480628 35.576051 35.672430 35.769842 35.868184 35.967529 36.067757 36.168932 36.270921 36.373779 36.477358 36.581704 36.686655 36.792249 36.898310 37.004868 37.111734 37.218930 37.326256 37.433724 37.541127 37.648471 37.755538 37.862328 37.968619 38.074406 38.179461 38.283776 38.387123 38.489488 38.590648 38.690584 38.789077 38.886108 38.981464 39.075127 39.166890 39.256738 39.344473 39.430083 39.513382 39.594359 39.672842 39.748824 39.822146 39.892804 39.960654 40.025696 40.087800 40.146970 40.203089 40.256165 40.306096 40.352891 40.396463 40.436822 40.473894 40.507689 40.538149 40.565282 40.589042 40.609436 40.626430 40.640031 40.650216 40.656988 40.660336 40.660263 40.656767 40.649849 40.639518 40.625771 40.608632 40.588094 40.564192 40.536918 40.506318 40.472385 40.435177 40.394686 40.350984 40.304062 40.254008 40.200813 40.144579 40.085299 40.023091 39.957951 39.890010 39.819268 39.745871 39.669822 39.591283 39.510259 39.426926 39.341293 39.253549 39.163707 39.071965 38.978341 38.883041 38.786085 38.687688 38.587869 38.486851 38.384652 38.281497 38.177402 38.072596 37.967090 37.861111 37.754668 37.647984 37.541062 37.434119 37.327152 37.220372 37.113766 37.007538 36.901665 36.796340 36.691534 36.587427 36.483979 36.381359 36.279518 36.178608 36.078575 35.979555 35.881484 35.784485 35.688486 35.593593 35.499727 35.406980 35.315266 35.224661 35.135074 35.046565 34.959040 34.872544 34.786979 34.702375 34.618633 34.535767 34.453680 34.372372 34.291745 34.211786 34.132399 34.053560 33.975176 33.897210 33.819574 33.742220 33.665067 33.588055 33.511111
33.888889 33.989483 34.090158 34.191005 34.292092 34.393520 34.495345 34.597673 34.700548 34.804081 34.908302 35.013325 35.119163 35.225935 35.333637 35.442387 35.552164 35.663087 35.775114 35.888363 36.002775 36.118461 36.235343 36.353529 36.472921 36.593619 36.715505 36.838673 36.962983 37.088522 37.215131 37.342884 37.471606 37.601360 37.731952 37.863434 37.995595 38.128477 38.261851 38.395750 38.529928 38.664409 38.798936 38.933519 39.067894 39.202061 39.335747 39.468945 39.601376 39.733028 39.863618 39.993128 40.121277 40.248045 40.373151 40.496573 40.618040 40.737527 40.854772 40.969752 41.082214 41.192141 41.299292 41.403652 41.504998 41.603317 41.698403 41.790248 41.878664 41.963648 42.045029 42.122808 42.196834 42.267112 42.333508 42.396032 42.454565 42.509121 42.559599 42.606013 42.648280 42.686412 42.720344 42.750087 42.775591 42.796864 42.813871 42.826620 42.835088 42.839280 42.839189 42.834814 42.826163 42.813232 42.796043 42.774589 42.748906 42.718985 42.684877 42.646571 42.604132 42.557549 42.506905 42.452187 42.393496 42.330819 42.264274 42.193853 42.119691 42.041781 41.960278 41.875181 41.786661 41.694721 41.599553 41.501162 41.399760 41.295356 41.188177 41.078240 40.965785 40.850831 40.733635 40.614218 40.492846 40.369543 40.244584 40.117994 39.990052 39.860782 39.730467 39.599127 39.467047 39.334239 39.200988 39.067299 38.933452 38.799444 38.665545 38.531746 38.398305 38.265203 38.132687 38.000725 37.869552 37.739123 37.609657 37.481099 37.353650 37.227245 37.102066 36.978037 36.855321 36.733832 36.613715 36.494873 36.377431 36.261286 36.146542 36.033088 35.921009 35.810189 35.700694 35.592403 35.485362 35.379448 35.274689 35.170961 35.068273 34.966502 34.865640 34.765565 34.666254 34.567589 34.469529 34.371963 34.274837 34.178044 34.081517 33.985158 33.888889
34.266667 34.387518 34.508472 34.629621 34.751078 34.872920 34.995272 35.118193 35.241816 35.366184 35.491433 35.617590 35.744795 35.873054 36.002510 36.133147 36.265110 36.398361 36.533041 36.669092 36.806651 36.945636 37.086180 37.228176 37.371750 37.516773 37.663361 37.811361 37.960879 38.111739 38.264035 38.417567 38.572418 38.728366 38.885481 39.043517 39.202532 39.362261 39.522748 39.683709 39.845175 40.006845 40.168739 40.330542 40.492259 40.653568 40.814463 40.974611 41.133999 41.292290 41.449464 41.605181 41.759416 41.911833 42.062403 42.210794 42.356977 42.500631 42.641725 42.779952 42.915283 43.047425 43.176354 43.301793 43.423726 43.541893 43.656282 43.766657 43.873011 43.975128 44.073008 44.166458 44.255482 44.339909 44.419749 44.494851 44.565229 44.630754 44.691440 44.747181 44.797991 44.843782 44.884569 44.920284 44.950938 44.976481 44.996922 45.012229 45.022407 45.027441 45.027331 45.022079 45.011682 44.996157 44.975498 44.949740 44.918871 44.882944 44.841946 44.795946 44.744931 44.688989 44.628104 44.562385 44.491818 44.416532 44.336514 44.251916 44.162728 44.069124 43.971097 43.868844 43.762365 43.651879 43.537390 43.419139 43.297137 43.171647 43.042684 42.910530 42.775208 42.637014 42.495977 42.352408 42.206338 42.058092 41.907699 41.755495 41.601508 41.446081 41.289237 41.131320 40.972352 40.812674 40.652300 40.491568 40.330481 40.169371 40.008230 39.847379 39.686798 39.526794 39.367336 39.208714 39.050882 38.894113 38.738348 38.583839 38.430514 38.278603 38.128022 37.978977 37.831372 37.685390 37.540924 37.398132 37.256897 37.117354 36.979375 36.843074 36.708313 36.575183 36.443541 36.313453 36.184774 36.057547 35.931622 35.807023 35.683599 35.561352 35.440133 35.319924 35.200580 35.082061 34.964231 34.847031 34.730330 34.614055 34.498082 34.382324 34.266667
34.644444 34.785630 34.926929 35.068471 35.210353 35.352714 35.495637 35.639271 35.783677 35.929012 36.075318 36.222758 36.371350 36.521260 36.672485 36.825191 36.979349 37.135126 37.292466 37.451533 37.612245 37.774761 37.938970 38.105025 38.272787 38.442400 38.613697 38.786810 38.961546 39.138023 39.316021 39.495643 39.676643 39.859110 40.042772 40.227700 40.413599 40.600526 40.788160 40.976544 41.165336 41.354565 41.543870 41.733265 41.922375 42.111200 42.299356 42.486830 42.673229 42.858532 43.042343 43.224633 43.405007 43.583431 43.759513 43.933218 44.104164 44.272314 44.437299 44.599085 44.757318 44.911969 45.062702 45.209493 45.352031 45.490296 45.623999 45.753130 45.877425 45.996879 46.111255 46.220556 46.324569 46.423304 46.516573 46.604390 46.686595 46.763204 46.834081 46.899243 46.958578 47.012104 47.059731 47.101474 47.137266 47.167119 47.190985 47.208875 47.220758 47.226641 47.226514 47.220376 47.208239 47.190096 47.165978 47.135873 47.099833 47.057842 47.009971 46.956202 46.896629 46.831232 46.760125 46.683290 46.600865 46.512834 46.419358 46.320425 46.216222 46.106741 45.992195 45.872582 45.748143 45.618881 45.485063 45.346699 45.204083 45.057231 44.906461 44.751796 44.593574 44.431826 44.266909 44.098857 43.928045 43.754508 43.578633 43.400457 43.220375 43.038421 42.854997 42.670130 42.484223 42.297297 42.109750 41.921596 41.733224 41.544636 41.356211 41.167938 40.980180 40.792912 40.606481 40.420844 40.236329 40.052878 39.870794 39.690005 39.510789 39.333057 39.157064 38.982703 38.810204 38.639445 38.470627 38.303617 38.138588 37.975396 37.814184 37.654800 37.497359 37.341699 37.187911 37.035825 36.885504 36.736778 36.589681 36.444041 36.299869 36.156993 36.015399 35.874918 35.735513 35.597021 35.459383 35.322442 35.186120 35.050270 34.914795 34.779557 34.644444
35.022222 35.183825 35.345567 35.507571 35.669990 35.832928 35.996551 36.160942 36.326277 36.492616 36.660142 36.828891 36.999052 37.170633 37.343827 37.518616 37.695189 37.873501 38.053741 38.235831 38.419955 38.606006 38.794160 38.984278 39.176527 39.370736 39.567060 39.765296 39.965585 40.167694 40.371747 40.577479 40.784998 40.994010 41.204605 41.416457 41.629641 41.843803 42.058999 42.274850 42.491395 42.708231 42.925380 43.142423 43.359363 43.575765 43.791620 44.006483 44.220330 44.432709 44.643590 44.852517 45.059452 45.263943 45.465949 45.665025 45.861128 46.053826 46.243077 46.428466 46.609955 46.787150 46.960018 47.128187 47.291634 47.450014 47.603309 47.751205 47.893691 48.030482 48.161577 48.286720 48.405919 48.518946 48.625815 48.726329 48.820506 48.908178 48.989366 49.063928 49.131886 49.193126 49.247669 49.295424 49.336409 49.370559 49.397888 49.418351 49.431958 49.438688 49.438543 49.431524 49.417628 49.396876 49.369261 49.334825 49.293556 49.245520 49.190699 49.129183 49.060953 48.986124 48.904674 48.816746 48.722318 48.621561 48.514457 48.401204 48.281789 48.156441 48.025152 47.888182 47.745530 47.597487 47.444060 47.285570 47.122032 46.953795 46.780885 46.603675 46.422198 46.236854 46.047680 45.855096 45.659145 45.460263 45.258494 45.054286 44.847684 44.639143 44.428703 44.216824 44.003538 43.789304 43.574144 43.358511 43.142414 42.926296 42.710152 42.494409 42.279047 42.064474 41.850652 41.637967 41.426364 41.216203 41.007410 40.800320 40.594839 40.391272 40.189509 39.989824 39.792090 39.596549 39.403059 39.211830 39.022706 38.835865 38.651138 38.468673 38.288288 38.110100 37.933921 37.759835 37.587650 37.417418 37.248944 37.082253 36.917147 36.753624 36.591487 36.430707 36.271093 36.112590 35.955013 35.798284 35.642226 35.486742 35.331664 35.176875 35.022222
35.400000 35.582122 35.764392 35.946976 36.130003 36.313654 36.498035 36.683339 36.869648 37.057165 37.245946 37.436201 37.627956 37.821426 38.016607 38.213716 38.412718 38.613825 38.816972 39.022368 39.229910 39.439801 39.651905 39.866414 40.083156 40.302311 40.523671 40.747401 40.973258 41.201391 41.431518 41.663773 41.897838 42.133826 42.371387 42.610613 42.851123 43.092986 43.335791 43.579589 43.823940 44.068875 44.313930 44.559117 44.803955 45.048435 45.292063 45.534815 45.776184 46.016138 46.254163 46.490216 46.723786 46.954823 47.182821 47.407730 47.629053 47.846740 48.060313 48.269723 48.474514 48.674644 48.869682 49.059593 49.243974 49.422801 49.595702 49.762663 49.923344 50.077741 50.225549 50.366773 50.501143 50.628670 50.749119 50.862508 50.968633 51.067518 51.158991 51.243076 51.319633 51.388686 51.450121 51.503963 51.550123 51.588623 51.619400 51.642468 51.657793 51.665380 51.665217 51.657306 51.641659 51.618268 51.587169 51.548350 51.501872 51.447716 51.385969 51.316608 51.239747 51.155363 51.063596 50.964424 50.858019 50.744357 50.623646 50.495865 50.361253 50.219800 50.071775 49.917177 49.756312 49.589185 49.416138 49.237186 49.052704 48.862718 48.667634 48.467486 48.262711 48.053350 47.839866 47.622307 47.401156 47.176466 46.948735 46.718017 46.484823 46.249203 46.011676 45.772285 45.531549 45.289503 45.046660 44.803043 44.559157 44.315009 44.071087 43.827382 43.584364 43.342003 43.100746 42.860544 42.621817 42.384493 42.148964 41.915136 41.683370 41.453551 41.226005 41.000598 40.777622 40.556924 40.338759 40.122957 39.909738 39.698917 39.490676 39.284819 39.081493 38.880489 38.681920 38.485569 38.291515 38.099536 37.909676 37.721712 37.535656 37.351285 37.168581 36.987324 36.807465 36.628792 36.451230 36.274572 36.098720 35.923479 35.748726 35.574282 35.400000
35.777778 35.980522 36.183442 36.386693 36.590470 36.794904 37.000205 37.206478 37.413946 37.622685 37.832928 38.044720 38.258299 38.473681 38.691103 38.910549 39.132256 39.356170 39.582528 39.811236 40.042524 40.276261 40.512668 40.751574 40.993187 41.237297 41.484097 41.733334 41.985186 42.239361 42.496015 42.754817 43.015901 43.278899 43.543921 43.810563 44.078912 44.348527 44.619473 44.891277 45.163979 45.437080 45.710597 45.984005 46.257301 46.529942 46.801905 47.072632 47.342087 47.609702 47.875427 48.138693 48.399442 48.657108 48.911628 49.162446 49.409498 49.652243 49.890621 50.124112 50.352661 50.575774 50.793406 51.005093 51.210799 51.410095 51.602957 51.788992 51.968188 52.140189 52.304994 52.462286 52.612075 52.754083 52.888326 53.014563 53.132819 53.242887 53.344796 53.438375 53.523653 53.600489 53.668914 53.728817 53.780223 53.823052 53.857324 53.882987 53.900051 53.908491 53.908312 53.899514 53.882092 53.856074 53.821447 53.778264 53.726507 53.666257 53.597488 53.520311 53.434697 53.340788 53.238554 53.128169 53.009603 52.883065 52.748531 52.606244 52.456188 52.298642 52.133598 51.961375 51.781976 51.595758 51.402734 51.203300 50.997483 50.785714 50.568030 50.344900 50.116368 49.882935 49.644655 49.402054 49.155193 48.904619 48.650396 48.393086 48.132754 47.869972 47.604798 47.337811 47.069059 46.799119 46.528026 46.256349 45.984108 45.711857 45.439599 45.167868 44.896645 44.626442 44.357216 44.089451 43.823082 43.558559 43.295793 43.035201 42.776671 42.520581 42.266795 42.015656 41.767005 41.521144 41.277895 41.037519 40.799821 40.565022 40.332909 40.103664 39.877062 39.653245 39.431977 39.213360 38.997153 38.783421 38.571916 38.362667 38.155426 37.950187 37.746704 37.544937 37.344645 37.145759 36.948044 36.751401 36.555608 36.360539 36.165985 35.971795 35.777778
36.155556 36.379045 36.602718 36.826781 37.051393 37.276777 37.503066 37.730499 37.959178 38.189354 38.421098 38.654668 38.890101 39.127660 39.367344 39.609419 39.853845 40.100886 40.350462 40.602831 40.857871 41.115830 41.376546 41.640253 41.906745 42.176241 42.448491 42.723695 43.001559 43.282262 43.565466 43.851327 44.139464 44.430008 44.722534 45.017150 45.313391 45.611338 45.910487 46.210894 46.512021 46.813898 47.115959 47.418208 47.720054 48.021480 48.321876 48.621205 48.918845 49.214743 49.508269 49.799361 50.087388 50.372279 50.653415 50.930718 51.203584 51.471939 51.735197 51.993289 52.245657 52.492241 52.732515 52.966429 53.193493 53.413671 53.626512 53.831995 54.029708 54.219645 54.401439 54.575092 54.740282 54.897023 55.045033 55.184335 55.314689 55.436123 55.548434 55.651655 55.745619 55.830358 55.905740 55.971794 56.028421 56.075644 56.113393 56.141685 56.160480 56.169787 56.169591 56.159894 56.140708 56.112026 56.073889 56.026280 55.969271 55.902836 55.827078 55.741966 55.647635 55.544053 55.431387 55.309606 55.178915 55.039283 54.890955 54.733908 54.568426 54.394495 54.212441 54.022261 53.824326 53.618643 53.405626 53.185297 52.958113 52.724109 52.483781 52.237177 51.984830 51.726801 51.463653 51.195457 50.922803 50.645766 50.364960 50.080460 49.792894 49.502334 49.209417 48.914208 48.617345 48.318880 48.019444 47.719077 47.418395 47.117418 46.816745 46.516374 46.216879 45.918231 45.620979 45.325067 45.031008 44.738722 44.448684 44.160786 43.875466 43.592587 43.312546 43.035182 42.760848 42.489358 42.221023 41.955636 41.693460 41.434272 41.178291 40.925276 40.675403 40.428418 40.184453 39.943245 39.704883 39.469099 39.235940 39.005134 38.776691 38.550338 38.326048 38.103552 37.882787 37.663492 37.445570 37.228770 37.012966 36.797920 36.583477 36.369415 36.155556
36.533333 36.777690 37.022261 37.267237 37.512851 37.759267 38.006738 38.255395 38.505506 38.757168 39.010661 39.266045 39.523606 39.783368 40.045618 40.310338 40.577818 40.847995 41.121154 41.397189 41.676376 41.958562 42.244012 42.532526 42.824353 43.119245 43.417432 43.718617 44.023009 44.330264 44.640563 44.953516 45.269278 45.587410 45.908041 46.230686 46.555443 46.881786 47.209785 47.538871 47.869087 48.199829 48.531111 48.862300 49.193381 49.523700 49.853218 50.181262 50.507774 50.832070 51.154078 51.473108 51.789080 52.101307 52.409704 52.713597 53.012898 53.306954 53.595681 53.878454 54.155196 54.425314 54.688745 54.944932 55.193827 55.434916 55.668166 55.893108 56.109725 56.317595 56.516716 56.706714 56.887601 57.059049 57.221080 57.373413 57.516080 57.648840 57.771731 57.884554 57.987348 58.079952 58.162403 58.234576 58.296504 58.348095 58.389375 58.420283 58.440835 58.451003 58.450791 58.440200 58.419224 58.387894 58.346195 58.294186 58.231842 58.159257 58.076398 57.983391 57.880200 57.766986 57.643710 57.510574 57.367541 57.214852 57.052475 56.880697 56.699493 56.509195 56.309790 56.101658 55.884800 55.659642 55.426201 55.184951 54.935925 54.679642 54.416151 54.146014 53.869295 53.586594 53.297986 53.004105 52.705035 52.401436 52.093398 51.781600 51.466130 51.147682 50.826339 50.502797 50.177130 49.850033 49.521561 49.192401 48.862588 48.532791 48.203023 47.873927 47.545491 47.218329 46.892399 46.568281 46.245903 45.925807 45.607890 45.292652 44.979961 44.670271 44.363421 44.059819 43.759278 43.462155 43.168239 42.877841 42.590725 42.307153 42.026871 41.750093 41.476547 41.206399 40.939366 40.675568 40.414711 40.156870 39.901746 39.649371 39.399445 39.151955 38.906606 38.663345 38.421882 38.182128 37.943801 37.706777 37.470789 37.235681 37.001199 36.767161 36.533333
36.911111 37.176478 37.442066 37.708121 37.974835 38.242477 38.511207 38.781310 39.052912 39.326312 39.601597 39.879076 40.158797 40.441073 40.725909 41.013619 41.304164 41.597855 41.894604 42.194715 42.498052 42.804909 43.115097 43.428895 43.746064 44.066862 44.390998 44.718709 45.049649 45.384031 45.721456 46.062107 46.405536 46.751894 47.100683 47.452021 47.805362 48.160793 48.517721 48.876201 49.235598 49.595936 49.956545 50.317416 50.677850 51.037812 51.396577 51.754087 52.109602 52.463043 52.813663 53.161369 53.505413 53.845694 54.181474 54.512648 54.838495 55.158914 55.473208 55.781286 56.082483 56.376718 56.663368 56.942367 57.213136 57.475626 57.729307 57.974150 58.209674 58.435869 58.652306 58.858992 59.055550 59.242000 59.418017 59.583632 59.738568 59.882865 60.016289 60.138886 60.250464 60.351068 60.440547 60.518941 60.586137 60.642168 60.686955 60.720520 60.742818 60.753861 60.753633 60.742135 60.719382 60.685363 60.640125 60.583645 60.516003 60.437166 60.347248 60.246211 60.134205 60.011188 59.877351 59.732650 59.577320 59.411321 59.234934 59.048127 58.851229 58.644220 58.427479 58.201001 57.965219 57.720143 57.466258 57.203594 56.932686 56.653584 56.366872 56.072616 55.771447 55.463447 55.149284 54.829054 54.503460 54.172604 53.837215 53.497398 53.153901 52.806826 52.456929 52.104303 51.749708 51.393221 51.035594 50.676886 50.317831 49.958466 49.599501 49.240946 48.883482 48.527086 48.172405 47.819383 47.468627 47.120048 46.774209 46.430985 46.090892 45.753775 45.420097 45.089673 44.762914 44.439607 44.120109 43.804182 43.492130 43.183689 42.879114 42.578120 42.280909 41.987181 41.697087 41.410313 41.126962 40.846713 40.569619 40.295355 40.023928 39.755014 39.488576 39.224294 38.962088 38.701647 38.442854 38.185407 37.929155 37.673812 37.419192 37.165031 36.911111
37.288889 37.575403 37.862172 38.149420 38.437427 38.726386 39.016596 39.308216 39.601561 39.896751 40.194113 40.493725 40.795922 41.100738 41.408511 41.719226 42.033222 42.350434 42.671194 42.995385 43.323331 43.654860 43.990280 44.329366 44.672407 45.019120 45.369772 45.724024 46.082115 46.443650 46.808838 47.177226 47.548993 47.923629 48.301278 48.681377 49.064034 49.448635 49.835251 50.223221 50.612582 51.002628 51.393361 51.784041 52.174637 52.564379 52.953206 53.340327 53.725658 54.108392 54.488429 54.864957 55.237863 55.606340 55.970268 56.328856 56.681984 57.028884 57.369443 57.702927 58.029233 58.347666 58.658142 58.960011 59.253208 59.537136 59.811750 60.076509 60.331387 60.575902 60.810048 61.033399 61.245969 61.447385 61.637678 61.816529 61.983979 62.139760 62.283919 62.416235 62.536759 62.645313 62.741944 62.826517 62.899072 62.959509 63.007862 63.044064 63.068137 63.080048 63.079804 63.067407 63.042849 63.006163 62.957328 62.896411 62.823379 62.738334 62.641234 62.532218 62.411237 62.278471 62.133871 61.977659 61.809788 61.630528 61.439839 61.238042 61.025108 60.801412 60.566941 60.322126 60.066970 59.801964 59.527132 59.243019 58.949674 58.647696 58.337154 58.018702 57.692426 57.359028 57.018611 56.671918 56.319062 55.960819 55.597311 55.229338 54.857020 54.481174 54.101914 53.720062 53.335720 52.949705 52.562102 52.173715 51.784603 51.395550 51.006585 50.618465 50.231185 49.845465 49.461267 49.079268 48.699395 48.322276 47.947802 47.576551 47.208376 46.843804 46.482652 46.125390 45.771804 45.422307 45.076653 44.735199 44.397672 44.064370 43.735000 43.409801 43.088459 42.771161 42.457575 42.147833 41.841594 41.538936 41.239512 40.943350 40.650098 40.359738 40.071920 39.786578 39.503371 39.222190 38.942702 38.664760 38.388045 38.112374 37.837446 37.563043 37.288889
37.666667 37.974487 38.282568 38.591197 38.900602 39.211096 39.522871 39.836258 40.151409 40.468673 40.788157 41.110220 41.434925 41.762634 42.093363 42.427474 42.764931 43.106093 43.450867 43.799607 44.152161 44.508869 44.869523 45.234443 45.603361 45.976574 46.353754 46.735172 47.120436 47.509786 47.902772 48.299598 48.699751 49.103401 49.509975 49.919605 50.331660 50.746231 51.162636 51.580924 52.000364 52.420969 52.841960 53.263315 53.684220 54.104617 54.523664 54.941275 55.356586 55.769488 56.179109 56.585321 56.987251 57.384763 57.776995 58.163807 58.544358 58.918512 59.285460 59.645078 59.996596 60.339905 60.674286 60.999649 61.315328 61.621259 61.916835 62.202015 62.476253 62.739533 62.991372 63.231776 63.460323 63.677039 63.881561 64.073928 64.253835 64.421332 64.576165 64.718390 64.847801 64.964452 65.068183 65.159045 65.236915 65.301836 65.353724 65.392608 65.418440 65.431235 65.430977 65.417666 65.391319 65.351920 65.299521 65.234090 65.155714 65.064351 64.960123 64.842980 64.713085 64.570382 64.415081 64.247125 64.066771 63.873968 63.669027 63.451906 63.222973 62.982202 62.730019 62.466418 62.191888 61.906444 61.610638 61.304511 60.988676 60.663198 60.328749 59.985420 59.633938 59.274412 58.907620 58.533687 58.153430 57.766988 57.375209 56.978236 56.576938 56.171456 55.762672 55.350714 54.936466 54.520039 54.102308 53.683360 53.264051 52.844437 52.425347 52.006805 51.589600 51.173721 50.759916 50.348131 49.939067 49.532629 49.129466 48.729442 48.333149 47.940412 47.551763 47.166992 46.786568 46.410247 46.038437 45.670861 45.307867 44.949150 44.594996 44.245077 43.899617 43.558272 43.221205 42.888057 42.558935 42.233469 41.911712 41.593288 41.278198 40.966064 40.656838 40.350147 40.045893 39.743714 39.443467 39.144804 38.847541 38.551346 38.256000 37.961191 37.666667