<?xml version="1.0"?>
<VTKFile type="ImageData" version="0.1" byte_order="LittleEndian">
  <ImageData WholeExtent="0 180 0 180 0 0" Origin="0.0 0.0 0.0" Spacing="0.05 0.05 1">
    <Piece Extent="0 180 0 180 0 0">
      <PointData Scalars="Temperature">
        <DataArray type="Float32" Name="Temperature" format="ascii">
32.000000 32.000000 32.000000 32.000000 32.000000 32.000000 32.000000 32.000000 32.000000 32.000000 32.000000 32.000000 32.000000 32.000000 32.000000 32.000000 32.000000 32.000000 32.000000 32.000000 32.000000 32.000000 32.000000 32.000000 32.000000 32.000000 32.000000 32.000000 32.000000 32.000000 32.000000 32.000000 32.000000 32.000000 32.000000 32.000000 32.000000 32.000000 32.000000 32.000000 32.000000 32.000000 32.000000 32.000000 32.000000 32.000000 32.000000 32.000000 32.000000 32.000000 32.000000 32.000000 32.000000 32.000000 32.000000 32.000000 32.000000 32.000000 32.000000 32.000000 32.000000 32.000000 32.000000 32.000000 32.000000 32.000000 32.000000 32.000000 32.000000 32.000000 32.000000 32.000000 32.000000 32.000000 32.000000 32.000000 32.000000 32.000000 32.000000 32.000000 32.000000 32.000000 32.000000 32.000000 32.000000 32.000000 32.000000 32.000000 32.000000 32.000000 32.000000 32.000000 32.000000 32.000000 32.000000 32.000000 32.000000 32.000000 32.000000 32.000000 32.000000 32.000000 32.000000 32.000000 32.000000 32.000000 32.000000 32.000000 32.000000 32.000000 32.000000 32.000000 32.000000 32.000000 32.000000 32.000000 32.000000 32.000000 32.000000 32.000000 32.000000 32.000000 32.000000 32.000000 32.000000 32.000000 32.000000 32.000000 32.000000 32.000000 32.000000 32.000000 32.000000 32.000000 32.000000 32.000000 32.000000 32.000000 32.000000 32.000000 32.000000 32.000000 32.000000 32.000000 32.000000 32.000000 32.000000 32.000000 32.000000 32.000000 32.000000 32.000000 32.000000 32.000000 32.000000 32.000000 32.000000 32.000000 32.000000 32.000000 32.000000 32.000000 32.000000 32.000000 32.000000 32.000000 32.000000 32.000000 32.000000 32.000000 32.000000 32.000000 32.000000 32.000000 32.000000 32.000000 32.000000 32.000000 32.000000 32.000000 32.000000
32.377778 32.378808 32.379869 32.380997 32.382218 32.383573 32.385082 32.386790 32.388709 32.390891 32.393340 32.396112 32.399204 32.402674 32.406512 32.410781 32.415461 32.420618 32.426224 32.432347 32.438952 32.446107 32.453769 32.462008 32.470772 32.480132 32.490028 32.500529 32.511569 32.523217 32.535398 32.548180 32.561480 32.575366 32.589747 32.604690 32.620097 32.636033 32.652393 32.669242 32.686467 32.704132 32.722119 32.740490 32.759123 32.778078 32.797228 32.816633 32.836163 32.855875 32.875640 32.895512 32.915361 32.935241 32.955022 32.974756 32.994316 33.013752 33.032941 33.051931 33.070603 33.089005 33.107020 33.124698 33.141928 33.158757 33.175080 33.190943 33.206250 33.221044 33.235236 33.248868 33.261859 33.274248 33.285963 33.297039 33.307413 33.317118 33.326098 33.334383 33.341925 33.348751 33.354821 33.360156 33.364727 33.368550 33.371602 33.373895 33.375417 33.376171 33.376155 33.375368 33.373814 33.371488 33.368402 33.364545 33.359939 33.354568 33.348461 33.341597 33.334015 33.325688 33.316665 33.306916 33.296495 33.285370 33.273604 33.261162 33.248116 33.234425 33.220172 33.205315 33.189941 33.174009 33.157613 33.140710 33.123402 33.105642 33.087542 33.069052 33.050290 33.031206 33.011921 32.992384 32.972721 32.952881 32.932992 32.913001 32.893039 32.873051 32.853168 32.833336 32.813684 32.794157 32.774883 32.755804 32.737047 32.718551 32.700440 32.682652 32.665305 32.648337 32.631860 32.615809 32.600293 32.585243 32.570762 32.556780 32.543391 32.530527 32.518274 32.506560 32.495466 32.484919 32.474990 32.465609 32.456837 32.448604 32.440963 32.433845 32.427295 32.421244 32.415730 32.410684 32.406137 32.402022 32.398361 32.395091 32.392226 32.389704 32.387533 32.385655 32.384069 32.382723 32.381606 32.380671 32.379903 32.379257 32.378712 32.378228 32.377778
32.755556 32.757638 32.759787 32.762061 32.764537 32.767259 32.770316 32.773739 32.777625 32.781991 32.786944 32.792485 32.798730 32.805664 32.813409 32.821937 32.831373 32.841673 32.852969 32.865200 32.878500 32.892792 32.908215 32.924673 32.942307 32.961006 32.980909 33.001890 33.024090 33.047363 33.071850 33.097391 33.124124 33.151872 33.180773 33.210635 33.241593 33.273441 33.306311 33.339983 33.374587 33.409893 33.446025 33.482742 33.520168 33.558053 33.596516 33.635300 33.674523 33.713923 33.753614 33.793334 33.833192 33.872926 33.912645 33.952088 33.991360 34.030208 34.068733 34.106687 34.144172 34.180949 34.217116 34.252445 34.287032 34.320662 34.353427 34.385127 34.415851 34.445412 34.473897 34.501135 34.527208 34.551961 34.575471 34.597601 34.618420 34.637808 34.655829 34.672380 34.687516 34.701151 34.713331 34.723989 34.733161 34.740797 34.746922 34.751502 34.754555 34.756063 34.756030 34.754458 34.751340 34.746693 34.740501 34.732797 34.723555 34.712825 34.700571 34.686859 34.671644 34.655011 34.636904 34.617426 34.596513 34.574286 34.550674 34.525815 34.499630 34.472276 34.443669 34.413981 34.383124 34.351286 34.318376 34.284596 34.249852 34.214361 34.178025 34.141073 34.103406 34.065264 34.026545 33.987498 33.948019 33.908365 33.868429 33.828473 33.788387 33.748436 33.708509 33.668870 33.629405 33.590375 33.551665 33.513532 33.475857 33.438890 33.402510 33.366959 33.332111 33.298200 33.265096 33.233020 33.201841 33.171768 33.142664 33.114726 33.087816 33.062113 33.037478 33.014076 32.991765 32.970696 32.950725 32.931985 32.914335 32.897890 32.882510 32.868293 32.855101 32.843017 32.831904 32.821827 32.812655 32.804438 32.797046 32.790515 32.784722 32.779684 32.775286 32.771532 32.768312 32.765615 32.763340 32.761462 32.759890 32.758585 32.757465 32.756480 32.755556
33.133333 33.136518 33.139795 33.143276 33.147035 33.151199 33.155823 33.161048 33.166909 33.173560 33.181016 33.189442 33.198831 33.209359 33.220995 33.233925 33.248095 33.263698 33.280655 33.299167 33.319130 33.340748 33.363893 33.388775 33.415237 33.443493 33.473361 33.505054 33.538367 33.573512 33.610258 33.648817 33.688934 33.730817 33.774189 33.819255 33.865714 33.913769 33.963098 34.013899 34.065833 34.119091 34.173318 34.228701 34.284870 34.342008 34.399733 34.458222 34.517088 34.576500 34.636068 34.695957 34.755774 34.815681 34.875287 34.934749 34.993683 35.052243 35.110052 35.167261 35.223507 35.278936 35.333200 35.386443 35.438333 35.489010 35.538163 35.585929 35.632015 35.676555 35.719280 35.760316 35.799420 35.836709 35.871966 35.905301 35.936520 35.965724 35.992746 36.017674 36.040367 36.060903 36.079165 36.095216 36.108967 36.120465 36.129648 36.136546 36.141123 36.143393 36.143345 36.140977 36.136303 36.129305 36.120022 36.108421 36.094565 36.078406 36.060033 36.039383 36.016570 35.991518 35.964368 35.935030 35.903670 35.870190 35.834780 35.797330 35.758060 35.716849 35.673942 35.629211 35.582926 35.534953 35.485583 35.434680 35.382555 35.329068 35.274551 35.218859 35.162341 35.104850 35.046750 34.987891 34.928648 34.868868 34.808937 34.748697 34.688540 34.628303 34.568382 34.508610 34.449381 34.390524 34.332428 34.274918 34.218375 34.162619 34.108020 34.054393 34.002095 33.950935 33.901255 33.852858 33.806069 33.760685 33.717012 33.674843 33.634461 33.595657 33.558691 33.523352 33.489875 33.458048 33.428081 33.399763 33.373278 33.348417 33.325337 33.303832 33.284035 33.265741 33.249061 33.233793 33.220024 33.207557 33.196456 33.186532 33.177824 33.170153 33.163535 33.157800 33.152943 33.148806 33.145361 33.142464 33.140067 33.138039 33.136313 33.134773 33.133333
33.511111 33.515464 33.519953 33.524691 33.529836 33.535475 33.541787 33.548834 33.556811 33.565754 33.575874 33.587179 33.599895 33.613998 33.629730 33.647034 33.666164 33.687032 33.709899 33.734646 33.761542 33.790433 33.821596 33.854841 33.890449 33.928197 33.968368 34.010705 34.055491 34.102437 34.151823 34.203327 34.257229 34.313172 34.371433 34.431627 34.494024 34.558210 34.624450 34.692304 34.762031 34.833166 34.905962 34.979935 35.055330 35.131645 35.209119 35.287239 35.366235 35.445586 35.525515 35.605500 35.685756 35.765759 35.845724 35.925129 36.004184 36.082378 36.159915 36.236301 36.311733 36.385735 36.458501 36.529576 36.599151 36.666794 36.732692 36.796441 36.858221 36.917658 36.974925 37.029681 37.082088 37.131839 37.179086 37.223555 37.265387 37.304342 37.340546 37.373795 37.404198 37.431585 37.456050 37.477455 37.495875 37.511209 37.523509 37.532708 37.538838 37.541866 37.541801 37.538644 37.532384 37.523053 37.510619 37.495149 37.476588 37.455039 37.430427 37.402886 37.372324 37.338911 37.302535 37.263401 37.221383 37.176718 37.129268 37.079304 37.026674 36.971686 36.914176 36.854485 36.792440 36.728414 36.662227 36.594283 36.524395 36.452994 36.379890 36.305538 36.229743 36.152982 36.075057 35.996463 35.916997 35.837169 35.756771 35.676323 35.595613 35.515166 35.434764 35.354935 35.275454 35.196844 35.118876 35.042064 34.966171 34.891701 34.818409 34.746783 34.676570 34.608239 34.541531 34.476890 34.414053 34.353437 34.294773 34.238450 34.184195 34.132367 34.082687 34.035485 33.990479 33.947966 33.907664 33.869835 33.834198 33.800982 33.769908 33.741171 33.714495 33.690044 33.667546 33.647130 33.628533 33.611853 33.596835 33.583543 33.571735 33.561445 33.552441 33.544729 33.538090 33.532503 33.527764 33.523823 33.520496 33.517705 33.515286 33.513136 33.511111
33.888889 33.894510 33.900288 33.906407 33.912993 33.920256 33.928292 33.937334 33.947445 33.958879 33.971664 33.986075 34.002102 34.020038 34.039834 34.061799 34.085845 34.112293 34.141015 34.172343 34.206106 34.242647 34.281750 34.323765 34.368436 34.416113 34.466498 34.519945 34.576111 34.635351 34.697281 34.762251 34.829838 34.900388 34.973438 35.049330 35.127563 35.208471 35.291521 35.377038 35.464457 35.554096 35.645361 35.738561 35.833082 35.929221 36.026345 36.124744 36.223772 36.323710 36.423903 36.524626 36.625222 36.725957 36.826179 36.926149 37.025222 37.123653 37.220815 37.316956 37.411469 37.504597 37.595758 37.685191 37.772342 37.857444 37.939977 38.020168 38.097532 38.172288 38.243990 38.312848 38.378455 38.441011 38.500150 38.556057 38.608411 38.657380 38.702685 38.744476 38.782517 38.816938 38.847546 38.874446 38.897491 38.916759 38.932146 38.943706 38.951375 38.955179 38.955099 38.951132 38.943301 38.931577 38.916023 38.896583 38.873364 38.846284 38.815491 38.780879 38.742639 38.700643 38.655123 38.605931 38.553344 38.497193 38.437800 38.374978 38.309093 38.239944 38.167938 38.092865 38.015169 37.934632 37.851738 37.766260 37.678718 37.588879 37.497296 37.403730 37.308763 37.212153 37.114507 37.015576 36.915988 36.815491 36.714726 36.613436 36.512273 36.410971 36.310189 36.209653 36.110019 36.011007 35.913266 35.816506 35.721364 35.627542 35.535658 35.445406 35.357380 35.271267 35.187634 35.106157 35.027375 34.950955 34.877403 34.806379 34.738352 34.672977 34.610684 34.551123 34.494686 34.441020 34.390474 34.342696 34.297994 34.256016 34.217027 34.180680 34.147199 34.116240 34.087987 34.062104 34.038733 34.017549 33.998653 33.981733 33.966851 33.953709 33.942331 33.932436 33.924011 33.916794 33.910739 33.905601 33.901302 33.897621 33.894446 33.891583 33.888889
34.266667 34.273666 34.280872 34.288453 34.296649 34.305593 34.315553 34.326624 34.339101 34.353038 34.368755 34.386262 34.405902 34.427640 34.451839 34.478417 34.507754 34.539720 34.574708 34.612540 34.653621 34.697722 34.745255 34.795941 34.850200 34.907699 34.968860 35.033302 35.101448 35.172863 35.247969 35.326283 35.408221 35.493254 35.581790 35.673254 35.768049 35.865554 35.966164 36.069219 36.175102 36.283118 36.393642 36.505946 36.620394 36.736234 36.853817 36.972374 37.092245 37.212648 37.333912 37.455252 37.576986 37.698329 37.819594 37.940001 38.059857 38.178398 38.295923 38.411690 38.525992 38.638114 38.748343 38.855998 38.961360 39.063785 39.163546 39.260042 39.353539 39.443478 39.530117 39.612945 39.692206 39.767440 39.838874 39.906101 39.969330 40.028203 40.082911 40.133148 40.179079 40.220451 40.257403 40.289732 40.317551 40.340707 40.359281 40.373171 40.382428 40.387000 40.386904 40.382138 40.372686 40.358598 40.339824 40.316464 40.288436 40.255891 40.218717 40.177116 40.130947 40.080464 40.025499 39.966357 39.902849 39.835330 39.763591 39.688038 39.608444 39.525267 39.438264 39.347943 39.254049 39.157138 39.056944 38.954068 38.848237 38.740094 38.629358 38.516711 38.401865 38.285535 38.167429 38.048289 37.927816 37.806775 37.684860 37.562851 37.440435 37.318402 37.196431 37.075311 36.954713 36.835421 36.717097 36.600513 36.485320 36.372270 36.261005 36.152253 36.045642 35.941874 35.840564 35.742379 35.646926 35.554831 35.465692 35.380094 35.297628 35.218831 35.143289 35.071494 35.003024 34.938323 34.876969 34.819356 34.765060 34.714424 34.667030 34.623170 34.582428 34.545048 34.510623 34.479346 34.450820 34.425191 34.402074 34.381568 34.363304 34.347334 34.333309 34.321235 34.310785 34.301923 34.294343 34.287969 34.282523 34.277887 34.273813 34.270146 34.266667
34.644444 34.652971 34.661718 34.670946 34.680834 34.691680 34.703617 34.716975 34.731843 34.748581 34.767228 34.788172 34.811399 34.837324 34.865878 34.897496 34.932057 34.970012 35.011182 35.056035 35.104334 35.156556 35.212406 35.272370 35.336092 35.404064 35.475869 35.552002 35.631986 35.716314 35.804452 35.896888 35.993031 36.093362 36.197235 36.305124 36.416330 36.531316 36.649336 36.770841 36.895039 37.022370 37.152003 37.284365 37.418594 37.555100 37.692998 37.832684 37.973253 38.115092 38.257284 38.400203 38.542930 38.685831 38.827990 38.969764 39.110253 39.249804 39.387539 39.523799 39.657733 39.789677 39.918815 40.045476 40.168887 40.289369 40.406196 40.519680 40.629146 40.734897 40.836312 40.933681 41.026440 41.114863 41.198445 41.277442 41.351409 41.420578 41.484565 41.543578 41.597291 41.645883 41.689090 41.727058 41.759581 41.786773 41.808487 41.824798 41.835620 41.840989 41.840876 41.835282 41.824233 41.807692 41.785745 41.758315 41.725547 41.687329 41.643864 41.595004 41.541014 41.481714 41.417427 41.347946 41.273654 41.194316 41.110378 41.021584 40.928436 40.830661 40.728821 40.622626 40.512696 40.398728 40.281396 40.160388 40.036430 39.909200 39.779471 39.646914 39.512345 39.375429 39.237016 39.096766 38.955558 38.813044 38.670127 38.526449 38.382929 38.239200 38.096185 37.953509 37.812092 37.671549 37.532789 37.395414 37.260316 37.127085 36.996587 36.868399 36.743354 36.621017 36.502183 36.386403 36.274432 36.165808 36.061236 35.960246 35.863491 35.770493 35.681852 35.597080 35.516724 35.440290 35.368268 35.300163 35.236405 35.176502 35.120824 35.068884 35.020992 34.976670 34.936169 34.899020 34.865420 34.834912 34.807635 34.783153 34.761548 34.742403 34.725749 34.711190 34.698709 34.687934 34.678798 34.670960 34.664305 34.658524 34.653458 34.648832 34.644444
35.022222 35.032426 35.042907 35.053896 35.065711 35.078535 35.092728 35.108418 35.126001 35.145553 35.167502 35.191865 35.219101 35.249167 35.282548 35.319138 35.359445 35.403300 35.451227 35.502992 35.559135 35.619353 35.684199 35.753302 35.827220 35.905514 35.988747 36.076410 36.169068 36.266143 36.368195 36.474582 36.585857 36.701314 36.821496 36.945635 37.074265 37.206558 37.343035 37.482816 37.626406 37.772880 37.922725 38.074975 38.230104 38.387109 38.546450 38.707099 38.869500 39.032608 39.196855 39.361187 39.526022 39.690311 39.854460 40.017429 40.179617 40.340003 40.498979 40.655552 40.810107 40.961689 41.110675 41.256155 41.398499 41.536850 41.671566 41.801849 41.928047 42.049420 42.166307 42.278032 42.384917 42.486352 42.582640 42.673241 42.758433 42.837745 42.911429 42.979081 43.040923 43.096620 43.146358 43.189871 43.227307 43.258467 43.283459 43.302149 43.314604 43.320756 43.320628 43.314218 43.301505 43.282552 43.257294 43.225863 43.188148 43.144350 43.094316 43.038315 42.976157 42.908176 42.834151 42.754482 42.668918 42.577929 42.481235 42.379375 42.272047 42.159857 42.042485 41.920604 41.793877 41.663041 41.527748 41.388797 41.245828 41.099697 40.950036 40.797754 40.642474 40.485151 40.325401 40.164216 40.001206 39.837392 39.672377 39.507201 39.341458 39.176202 39.011014 38.846950 38.683581 38.521954 38.361627 38.203631 38.047509 37.894268 37.743435 37.595984 37.451427 37.310696 37.173290 37.040094 36.910590 36.785615 36.664635 36.548430 36.436457 36.329433 36.226806 36.129232 36.036150 35.948151 35.864672 35.786236 35.712279 35.643258 35.578611 35.518727 35.463053 35.411908 35.364750 35.321834 35.282629 35.247326 35.215412 35.187014 35.161640 35.139355 35.119692 35.102657 35.087811 35.075102 35.064123 35.054767 35.046661 35.039647 35.033388 35.027679 35.022222
35.400000 35.412077 35.424442 35.437432 35.451282 35.466376 35.482892 35.501255 35.521585 35.544346 35.569592 35.597826 35.629034 35.663750 35.701892 35.744020 35.789982 35.840360 35.894929 35.954290 36.018143 36.087102 36.160792 36.239837 36.323784 36.413264 36.507746 36.607863 36.713007 36.823807 36.939581 37.060953 37.187164 37.318831 37.455123 37.596645 37.742499 37.893274 38.048010 38.207280 38.370068 38.536927 38.706791 38.880197 39.056035 39.234824 39.415419 39.598323 39.782368 39.968038 40.154151 40.341178 40.527932 40.714872 40.900819 41.086217 41.269908 41.452327 41.632343 41.810382 41.985351 42.157671 42.326294 42.491633 42.652697 42.809889 42.962279 43.110263 43.252976 43.390802 43.522947 43.649781 43.770584 43.885705 43.994501 44.097299 44.193533 44.283502 44.366715 44.443441 44.513266 44.576421 44.632570 44.681903 44.724158 44.759481 44.787687 44.808874 44.822930 44.829905 44.829761 44.822497 44.808150 44.786669 44.758165 44.722536 44.679969 44.630315 44.573835 44.510338 44.440157 44.363063 44.279465 44.189097 44.092445 43.989210 43.879958 43.764359 43.643058 43.515702 43.383011 43.244616 43.101307 42.952702 42.799663 42.641796 42.480029 42.313959 42.144577 41.971470 41.795685 41.616802 41.435916 41.252599 41.067983 40.881634 40.694714 40.506776 40.319002 40.130935 39.943764 39.757019 39.571887 39.387883 39.206179 39.026277 38.849324 38.674803 38.503831 38.335871 38.171999 38.011662 37.855883 37.704093 37.557261 37.414799 37.277615 37.145108 37.018118 36.896032 36.779620 36.668259 36.562648 36.462156 36.367408 36.277771 36.193793 36.114842 36.041391 35.972813 35.909504 35.850847 35.797162 35.747846 35.703145 35.662473 35.626005 35.593175 35.564088 35.538203 35.515558 35.495641 35.478425 35.463430 35.450566 35.439391 35.429754 35.421255 35.413685 35.406687 35.400000
35.777778 35.791919 35.806411 35.821547 35.837729 35.855189 35.874381 35.895472 35.918960 35.944943 35.973961 36.006041 36.041758 36.081064 36.124569 36.172144 36.224427 36.281212 36.343156 36.409970 36.482333 36.559870 36.643271 36.732078 36.826990 36.927461 37.034194 37.146558 37.265254 37.389566 37.520190 37.656327 37.798663 37.946317 38.099964 38.258646 38.423020 38.592055 38.766392 38.944932 39.128296 39.315326 39.506620 39.700969 39.898950 40.099311 40.302610 40.507561 40.714702 40.922725 41.132152 41.341665 41.551770 41.761150 41.970297 42.177911 42.384472 42.588704 42.791079 42.990358 43.187006 43.379832 43.569292 43.754253 43.935164 44.110957 44.282072 44.447515 44.607713 44.761748 44.910037 45.051741 45.187259 45.315837 45.437849 45.552629 45.660522 45.760948 45.854220 45.939841 46.018089 46.088551 46.151461 46.206490 46.253826 46.293224 46.324818 46.348447 46.364191 46.371970 46.371810 46.363711 46.347645 46.323690 46.291765 46.252029 46.204347 46.148961 46.085685 46.014843 45.936202 45.850171 45.756473 45.655604 45.547247 45.431983 45.309464 45.180357 45.044285 44.902002 44.753107 44.598439 44.437580 44.271447 44.099612 43.923069 43.741377 43.555604 43.365301 43.171601 42.974048 42.773831 42.570489 42.365260 42.157672 41.949003 41.738773 41.528285 41.317048 41.106381 40.895778 40.686562 40.478212 40.272042 40.067512 39.865915 39.666695 39.471110 39.278585 39.090337 38.905769 38.726047 38.550553 38.380395 38.214935 38.055216 37.900580 37.751999 37.608800 37.471877 37.340547 37.215623 37.096410 36.983642 36.876617 36.775986 36.681045 36.592358 36.509228 36.432133 36.360381 36.294369 36.233416 36.177835 36.126963 36.081032 36.039400 36.002218 35.968872 35.939436 35.913324 35.890539 35.870528 35.853222 35.838108 35.825048 35.813572 35.803478 35.794341 35.785899 35.777778
36.155556 36.172001 36.188803 36.206381 36.225025 36.245212 36.267162 36.291403 36.318083 36.347778 36.380558 36.417042 36.457219 36.501744 36.550526 36.604249 36.662736 36.726701 36.795873 36.870990 36.951691 37.038729 37.131649 37.231216 37.336882 37.449416 37.568176 37.693932 37.825946 37.964985 38.110219 38.262404 38.420620 38.585610 38.756366 38.933614 39.116263 39.305020 39.498715 39.698034 39.901736 40.110483 40.322972 40.539843 40.759737 40.983271 41.209045 41.437653 41.667663 41.899650 42.132165 42.365761 42.598987 42.832380 43.064497 43.295863 43.525057 43.752592 43.977083 44.199035 44.417111 44.631807 44.841847 45.047719 45.248213 45.443814 45.633386 45.817404 45.994817 46.166087 46.330251 46.487754 46.637727 46.780590 46.915570 47.043061 47.162381 47.273894 47.377013 47.472062 47.558548 47.636749 47.706266 47.767329 47.819627 47.863338 47.898240 47.924453 47.941845 47.950475 47.950300 47.941318 47.923573 47.897002 47.861737 47.817656 47.764978 47.703525 47.633605 47.554986 47.468069 47.372571 47.268985 47.156984 47.037154 46.909131 46.773596 46.630151 46.479570 46.321431 46.156601 45.984636 45.806495 45.621719 45.431355 45.234931 45.033578 44.826813 44.615847 44.400189 44.181117 43.958135 43.732580 43.503948 43.273626 43.041100 42.807793 42.573181 42.338710 42.103844 41.870038 41.636740 41.405401 41.175451 40.948326 40.723433 40.502180 40.283950 40.070111 39.860024 39.655002 39.454384 39.259422 39.069432 38.885595 38.707206 38.535372 38.369364 38.210209 38.057162 37.911163 37.771454 37.638884 37.512688 37.393623 37.280918 37.175237 37.075810 36.983207 36.896664 36.816658 36.742434 36.674377 36.611749 36.554844 36.502943 36.456254 36.414082 36.376550 36.342994 36.313452 36.287297 36.264488 36.244435 36.227023 36.211706 36.198296 36.186296 36.175448 36.165309 36.155556
36.533333 36.552312 36.571717 36.591906 36.613371 36.636396 36.661530 36.688982 36.719353 36.752771 36.789886 36.830738 36.876024 36.925692 36.980477 37.040235 37.105733 37.176729 37.254018 37.337260 37.427269 37.523605 37.627096 37.737200 37.854753 37.979110 38.111111 38.250006 38.396632 38.550136 38.711349 38.879316 39.054854 39.236911 39.426286 39.621833 39.824330 40.032543 40.247226 40.467062 40.692779 40.922988 41.158389 41.397529 41.641082 41.887541 42.137554 42.389574 42.644224 42.899931 43.157295 43.414731 43.672821 43.929980 44.186776 44.441642 44.695131 44.945709 45.193921 45.438278 45.679317 45.915608 46.147682 46.374180 46.595625 46.810741 47.020042 47.222341 47.418140 47.606348 47.787454 47.960464 48.125849 48.282716 48.431512 48.571447 48.702934 48.825289 48.938887 49.043143 49.138390 49.224143 49.300684 49.367629 49.425200 49.473113 49.511529 49.540259 49.559402 49.568862 49.568671 49.558830 49.539303 49.510184 49.471372 49.423056 49.365072 49.297703 49.220724 49.134517 49.038800 48.934055 48.819948 48.697062 48.565020 48.424507 48.275105 48.117604 47.951556 47.777853 47.596022 47.407056 47.210465 47.007340 46.797176 46.581161 46.358780 46.131309 45.898225 45.660885 45.418761 45.173280 44.923909 44.672134 44.417414 44.161283 43.903190 43.644702 43.385255 43.126435 42.867662 42.610526 42.354428 42.100947 41.849460 41.601522 41.356486 41.115868 40.878994 40.647329 40.420172 40.198925 39.982862 39.773311 39.569520 39.372738 39.182187 38.999031 38.822471 38.653577 38.491533 38.337312 38.190086 38.050727 37.918399 37.793875 37.676313 37.566383 37.463249 37.367477 37.278237 37.195997 37.119940 37.050432 36.986677 36.928944 36.876460 36.829400 36.787022 36.749408 36.715852 36.686347 36.660228 36.637403 36.617252 36.599603 36.583885 36.569851 36.556984 36.544963 36.533333
36.911111 36.932903 36.955124 36.978276 37.002712 37.029000 37.057410 37.088572 37.122670 37.160389 37.201823 37.247706 37.298036 37.353593 37.414275 37.480898 37.553260 37.632208 37.717433 37.809808 37.908915 38.015646 38.129473 38.251300 38.380486 38.517940 38.662912 38.816307 38.977263 39.146680 39.323582 39.508860 39.701427 39.902157 40.109859 40.325383 40.547438 40.776850 41.012235 41.254389 41.501842 41.755361 42.013401 42.276698 42.543642 42.814938 43.088928 43.366285 43.645316 43.926667 44.208622 44.491807 44.774500 45.057306 45.338515 45.618717 45.896229 46.171630 46.443281 46.711751 46.975461 47.234972 47.488778 47.737435 47.979520 48.215583 48.444294 48.666196 48.880059 49.086416 49.284142 49.473753 49.654236 49.826083 49.988393 50.141629 50.285001 50.418936 50.542754 50.656840 50.760622 50.854433 50.937810 51.011027 51.073727 51.126120 51.167952 51.199365 51.220209 51.230553 51.230348 51.219591 51.198333 51.166500 51.124241 51.071413 51.008267 50.934591 50.850741 50.756440 50.652150 50.537536 50.413168 50.278659 50.134688 49.980825 49.817861 49.645328 49.464129 49.273767 49.075257 48.868080 48.653360 48.430563 48.200918 47.963882 47.720785 47.471074 47.216174 46.955527 46.690642 46.420956 46.148049 45.871353 45.592508 45.310936 45.028322 44.744077 44.459915 44.175231 43.891752 43.608853 43.328256 43.049315 42.773733 42.500835 42.232288 41.967391 41.707761 41.452665 41.203659 40.959978 40.723105 40.492245 40.268797 40.051938 39.842974 39.641057 39.447395 39.261117 39.083329 38.913142 38.751553 38.597662 38.452357 38.314730 38.185557 38.063931 37.950516 37.844409 37.746165 37.654891 37.571034 37.493718 37.423282 37.358873 37.300728 37.248023 37.200891 37.158546 37.121023 37.087575 37.058146 37.032033 37.009091 36.988670 36.970538 36.954102 36.939049 36.924849 36.911111
37.288889 37.313757 37.339132 37.365440 37.393262 37.422939 37.455121 37.490058 37.528462 37.570490 37.616909 37.667775 37.723907 37.785255 37.852682 37.926031 38.006199 38.092918 38.187117 38.288410 38.397749 38.514631 38.640024 38.773306 38.915451 39.065716 39.225079 39.392674 39.569474 39.754493 39.948691 40.150963 40.362252 40.581337 40.809140 41.044325 41.287788 41.538089 41.796092 42.060260 42.331423 42.607957 42.890656 43.177822 43.470212 43.766066 44.066108 44.368528 44.674022 44.980745 45.289367 45.598029 45.907375 46.215551 46.523184 46.828439 47.131929 47.431860 47.728834 48.021113 48.309293 48.591709 48.868950 49.139438 49.403758 49.660430 49.910033 50.151193 50.384481 50.608638 50.824221 51.030087 51.226777 51.413267 51.590071 51.756288 51.912397 52.057616 52.192382 52.316031 52.428950 52.530591 52.621282 52.700589 52.768773 52.825511 52.870995 52.905010 52.927672 52.938874 52.938654 52.927010 52.903903 52.869438 52.823496 52.766290 52.697628 52.617829 52.526630 52.424463 52.310999 52.186782 52.051426 51.905591 51.748838 51.581948 51.404439 51.217213 51.019752 50.813079 50.596653 50.371614 50.137404 49.895281 49.644674 49.386955 49.121545 48.849923 48.571504 48.287867 47.998421 47.704833 47.406507 47.105182 46.800257 46.493528 46.184383 45.874658 45.563730 45.253456 44.943194 44.634805 44.327626 44.023504 43.721746 43.424172 43.130056 42.841172 42.556762 42.278536 42.005702 41.739897 41.480294 41.228443 40.983484 40.746871 40.517714 40.297363 40.084900 39.881566 39.686421 39.500591 39.323117 39.155009 38.995296 38.844869 38.702751 38.569712 38.444778 38.328599 38.220207 38.120136 38.027431 37.942510 37.864439 37.793523 37.728856 37.670630 37.617976 37.570978 37.528807 37.491446 37.458111 37.428687 37.402441 37.379165 37.358185 37.339202 37.321607 37.305016 37.288889
37.666667 37.694930 37.723700 37.753563 37.784939 37.818490 37.854542 37.893827 37.936572 37.983573 38.034952 38.091561 38.153412 38.221410 38.295450 38.376480 38.464278 38.559827 38.662783 38.774155 38.893476 39.021774 39.158455 39.304559 39.459361 39.623908 39.797344 39.980712 40.173025 40.375318 40.586473 40.807507 41.037177 41.276477 41.524041 41.780832 42.045367 42.318579 42.598873 42.887144 43.181699 43.483394 43.790445 44.103670 44.421209 44.743841 45.069646 45.399366 45.731037 46.065370 46.400374 46.736731 47.072446 47.408176 47.741942 48.074382 48.403549 48.730072 49.052056 49.370122 49.682446 49.989644 50.289979 50.584066 50.870266 51.149194 51.419322 51.681258 51.933598 52.176940 52.410003 52.633374 52.845900 53.048145 53.239087 53.419258 53.587768 53.745107 53.890514 54.024429 54.146215 54.256257 54.354036 54.439873 54.513367 54.574764 54.623781 54.660585 54.685005 54.697127 54.696892 54.684299 54.659404 54.622120 54.572614 54.510719 54.436714 54.350352 54.252030 54.141427 54.019059 53.884537 53.738500 53.580502 53.411304 53.230413 53.038719 52.835687 52.622336 52.398103 52.164137 51.919851 51.666525 51.403558 51.132355 50.852307 50.564939 50.269639 49.968043 49.659537 49.345858 49.026390 48.702958 48.374942 48.044238 47.710219 47.374835 47.037446 46.700038 46.361954 46.025194 45.689078 45.355603 45.024060 44.696421 44.371946 44.052564 43.737499 43.428621 43.125116 42.828778 42.538756 42.256756 41.981887 41.715759 41.457443 41.208441 40.967791 40.736879 40.514714 40.302562 40.099410 39.906396 39.722489 39.548704 39.383996 39.229251 39.083423 38.947267 38.819741 38.701473 38.591432 38.490120 38.396523 38.311022 38.232627 38.161599 38.096982 38.038919 37.986495 37.939739 37.897783 37.860550 37.827222 37.797619 37.770984 37.747038 37.725089 37.704765 37.685444 37.666667