# vtk DataFile Version 3.0
Steady-state temperature (Jacobi)
ASCII
DATASET STRUCTURED_POINTS
DIMENSIONS 181 181 1
ORIGIN 0.0 0.0 0.0
SPACING 0.05 0.05 1.0
POINT_DATA 32761
SCALARS Temperature float 1
LOOKUP_TABLE default
32.000000 32.000000 32.000000 32.000000 32.000000 32.000000 32.000000 32.000000
32.000000 32.000000 32.000000 32.000000 32.000000 32.000000 32.000000 32.000000
32.000000 32.000000 32.000000 32.000000 32.000000 32.000000 32.000000 32.000000
32.000000 32.000000 32.000000 32.000000 32.000000 32.000000 32.000000 32.000000
32.000000 32.000000 32.000000 32.000000 32.000000 32.000000 32.000000 32.000000
32.000000 32.000000 32.000000 32.000000 32.000000 32.000000 32.000000 32.000000
32.000000 32.000000 32.000000 32.000000 32.000000 32.000000 32.000000 32.000000
32.000000 32.000000 32.000000 32.000000 32.000000 32.000000 32.000000 32.000000
32.000000 32.000000 32.000000 32.000000 32.000000 32.000000 32.000000 32.000000
32.000000 32.000000 32.000000 32.000000 32.000000 32.000000 32.000000 32.000000
32.000000 32.000000 32.000000 32.000000 32.000000 32.000000 32.000000 32.000000
32.000000 32.000000 32.000000 32.000000 32.000000 32.000000 32.000000 32.000000
32.000000 32.000000 32.000000 32.000000 32.000000 32.000000 32.000000 32.000000
32.000000 32.000000 32.000000 32.000000 32.000000 32.000000 32.000000 32.000000
32.000000 32.000000 32.000000 32.000000 32.000000 32.000000 32.000000 32.000000
32.000000 32.000000 32.000000 32.000000 32.000000 32.000000 32.000000 32.000000
32.000000 32.000000 32.000000 32.000000 32.000000 32.000000 32.000000 32.000000
32.000000 32.000000 32.000000 32.000000 32.000000 32.000000 32.000000 32.000000
32.000000 32.000000 32.000000 32.000000 32.000000 32.000000 32.000000 32.000000
32.000000 32.000000 32.000000 32.000000 32.000000 32.000000 32.000000 32.000000
32.000000 32.000000 32.000000 32.000000 32.000000 32.000000 32.000000 32.000000
32.000000 32.000000 32.000000 32.000000 32.000000 32.000000 32.000000 32.000000
32.000000 32.000000 32.000000 32.000000 32.000000
32.377778 32.407468 32.437163 32.466869 32.496591 32.526333 32.556100 32.585898
32.615729 32.645600 32.675512 32.705472 32.735479 32.765538 32.795651 32.825819
32.856043 32.886326 32.916663 32.947059 32.977508 33.008011 33.038562 33.069161
33.099800 33.130477 33.161183 33.191914 33.222659 33.253413 33.284162 33.314900
33.345612 33.376288 33.406912 33.437474 33.467955 33.498343 33.528616 33.558763
33.588761 33.618594 33.648239 33.677680 33.706892 33.735859 33.764553 33.792958
33.821047 33.848801 33.876194 33.903207 33.929814 33.955995 33.981724 34.006984
34.031748 34.056000 34.079714 34.102873 34.125456 34.147445 34.168819 34.189565
34.209662 34.229098 34.247854 34.265919 34.283278 34.299920 34.315831 34.331004
34.345425 34.359090 34.371986 34.384109 34.395450 34.406005 34.415767 34.424733
34.432897 34.440257 34.446809 34.452551 34.457479 34.461594 34.464893 34.467375
34.469039 34.469884 34.469912 34.469120 34.467512 34.465085 34.461843 34.457785
34.452915 34.447233 34.440742 34.433445 34.425347 34.416448 34.406756 34.396274
34.385008 34.372964 34.360150 34.346571 34.332239 34.317160 34.301346 34.284806
34.267555 34.249601 34.230962 34.211649 34.191679 34.171067 34.149832 34.127989
34.105559 34.082558 34.059010 34.034931 34.010347 33.985275 33.959741 33.933764
33.907369 33.880576 33.853412 33.825895 33.798052 33.769903 33.741473 33.712781
33.683854 33.654706 33.625366 33.595847 33.566175 33.536364 33.506437 33.476406
33.446294 33.416112 33.385879 33.355605 33.325307 33.294995 33.264684 33.234379
33.204095 33.173837 33.143617 33.113436 33.083307 33.053229 33.023211 32.993254
32.963362 32.933536 32.903779 32.874089 32.844470 32.814916 32.785431 32.756009
32.726651 32.697351 32.668108 32.638917 32.609775 32.580676 32.551616 32.522590
32.493593 32.464619 32.435662 32.406717 32.377778
32.755556 32.814939 32.874333 32.933747 32.993194 33.052681 33.112219 33.171817
33.231485 33.291230 33.351060 33.410981 33.471003 33.531125 33.591358 33.651699
33.712156 33.772725 33.833411 33.894207 33.955116 34.016128 34.077243 34.138448
34.199741 34.261104 34.322531 34.384003 34.445511 34.507029 34.568546 34.630034
34.691477 34.752843 34.814114 34.875252 34.936237 34.997028 35.057600 35.117910
35.177931 35.237615 35.296932 35.355833 35.414285 35.472237 35.529654 35.586483
35.642689 35.698217 35.753031 35.807076 35.860316 35.912697 35.964183 36.014721
36.064275 36.112795 36.160247 36.206582 36.251769 36.295762 36.338533 36.380037
36.420250 36.459133 36.496662 36.532802 36.567534 36.600826 36.632662 36.663014
36.691868 36.719202 36.745004 36.769254 36.791944 36.813057 36.832587 36.850521
36.866854 36.881576 36.894683 36.906167 36.916028 36.924258 36.930857 36.935821
36.939149 36.940841 36.940895 36.939313 36.936094 36.931241 36.924755 36.916639
36.906895 36.895530 36.882546 36.867950 36.851748 36.833949 36.814559 36.793591
36.771052 36.746959 36.721322 36.694159 36.665484 36.635319 36.603678 36.570590
36.536072 36.500155 36.462860 36.424222 36.384264 36.343027 36.300536 36.256834
36.211952 36.165934 36.118814 36.070640 36.021446 35.971284 35.920189 35.868215
35.815398 35.761793 35.707436 35.652383 35.596670 35.540352 35.483464 35.426062
35.368178 35.309866 35.251157 35.192103 35.132732 35.073094 35.013214 34.953138
34.892890 34.832511 34.772022 34.711462 34.650846 34.590210 34.529568 34.468949
34.408363 34.347838 34.287381 34.227013 34.166739 34.106577 34.046528 33.986607
33.926812 33.867155 33.807631 33.748247 33.688998 33.629889 33.570910 33.512064
33.453340 33.394738 33.336246 33.277862 33.219572 33.161372 33.103249 33.045194
32.987196 32.929245 32.871329 32.813436 32.755556
33.133333 33.222416 33.311514 33.400644 33.489820 33.579060 33.668375 33.757783
33.847293 33.936921 34.026676 34.116572 34.206613 34.296813 34.387172 34.477703
34.568401 34.659276 34.750320 34.841538 34.932919 35.024464 35.116157 35.207995
35.299956 35.392035 35.484202 35.576448 35.668737 35.761056 35.853364 35.945641
36.037841 36.129940 36.221884 36.313644 36.405163 36.496406 36.587309 36.677834
36.767911 36.857499 36.946524 37.034940 37.122669 37.209662 37.295840 37.381150
37.465511 37.548870 37.631143 37.712277 37.792189 37.870824 37.948103 38.023971
38.098351 38.171189 38.242412 38.311970 38.379792 38.445833 38.510026 38.572330
38.632683 38.691049 38.747372 38.801619 38.853742 38.903713 38.951487 38.997043
39.040342 39.081366 39.120082 39.156476 39.190521 39.222207 39.251510 39.278423
39.302928 39.325020 39.344684 39.361918 39.376711 39.389061 39.398961 39.406409
39.411403 39.413941 39.414022 39.411648 39.406819 39.399537 39.389805 39.377627
39.363009 39.345954 39.326474 39.304571 39.280262 39.253551 39.224458 39.192990
39.159172 39.123013 39.084543 39.043776 39.000746 38.955470 38.907988 38.858324
38.806522 38.752609 38.696637 38.638637 38.578667 38.516764 38.452990 38.387386
38.320021 38.250939 38.180214 38.107894 38.034055 37.958750 37.882058 37.804032
37.724756 37.644282 37.562694 37.480048 37.396426 37.311883 37.226500 37.140330
37.053454 36.965921 36.877809 36.789165 36.700062 36.610545 36.520681 36.430510
36.340098 36.249476 36.158705 36.067814 35.976857 35.885856 35.794861 35.703890
35.612984 35.522158 35.431447 35.340860 35.250427 35.160153 35.070061 34.980151
34.890443 34.800932 34.711632 34.622535 34.533651 34.444967 34.356489 34.268203
34.180109 34.092192 34.004447 33.916858 33.829417 33.742106 33.654915 33.567824
33.480821 33.393887 33.307007 33.220161 33.133333
33.511111 33.629901 33.748713 33.867567 33.986484 34.105484 34.224589 34.343813
34.463180 34.582700 34.702396 34.822275 34.942357 35.062644 35.183154 35.303885
35.424852 35.546045 35.667477 35.789133 35.911020 36.033117 36.155426 36.277918
36.400592 36.523410 36.646364 36.769411 36.892536 37.015687 37.138843 37.261945
37.384964 37.507833 37.630518 37.752943 37.875067 37.996807 38.118116 38.238905
38.359118 38.478662 38.597477 38.715461 38.832551 38.948642 39.063666 39.177514
39.290117 39.401363 39.511181 39.619460 39.726128 39.831074 39.934227 40.035479
40.134761 40.231970 40.327037 40.419865 40.510391 40.598523 40.684202 40.767343
40.847894 40.925777 41.000945 41.073329 41.142888 41.209561 41.273314 41.334093
41.391870 41.446599 41.498257 41.546808 41.592231 41.634497 41.673592 41.709490
41.742182 41.771647 41.797880 41.820866 41.840599 41.857070 41.870276 41.880210
41.886870 41.890255 41.890364 41.887197 41.880755 41.871043 41.858062 41.841819
41.822319 41.799572 41.773584 41.744371 41.711939 41.676311 41.637495 41.595520
41.550398 41.502163 41.450831 41.396445 41.339025 41.278620 41.215257 41.148993
41.079860 41.007923 40.933222 40.855828 40.775788 40.693180 40.608059 40.520511
40.430593 40.338401 40.243996 40.147479 40.048918 39.948416 39.846045 39.741913
39.636092 39.528693 39.419789 39.309492 39.197875 39.085049 38.971085 38.856092
38.740139 38.623332 38.505734 38.387449 38.268535 38.149090 38.029167 37.908856
37.788206 37.667300 37.546180 37.424921 37.303558 37.182159 37.060753 36.939400
36.818120 36.696966 36.575953 36.455124 36.334488 36.214081 36.093906 35.973992
35.854334 35.734956 35.615849 35.497027 35.378478 35.260211 35.142209 35.024475
34.906990 34.789750 34.672734 34.555934 34.439327 34.322899 34.206627 34.090495
33.974476 33.858553 33.742699 33.626893 33.511111
33.888889 34.037399 34.185935 34.334525 34.483194 34.631970 34.780873 34.929933
35.079166 35.228601 35.378248 35.528136 35.678269 35.828673 35.979347 36.130312
36.281562 36.433114 36.584952 36.737090 36.889504 37.042202 37.195152 37.348354
37.501768 37.655388 37.809163 37.963079 38.117077 38.271135 38.425182 38.579188
38.733075 38.886802 39.040281 39.193463 39.346251 39.498587 39.650365 39.801521
39.951938 40.101545 40.250220 40.397885 40.544410 40.689712 40.833657 40.976159
41.117079 41.256328 41.393767 41.529305 41.662804 41.794171 41.923271 42.050015
42.174270 42.295949 42.414927 42.531121 42.644411 42.754722 42.861941 42.966001
43.066797 43.164270 43.258325 43.348909 43.435940 43.519372 43.599132 43.675182
43.747460 43.815935 43.880554 43.941293 43.998109 44.050983 44.099879 44.144783
44.185668 44.222524 44.255330 44.284079 44.308756 44.329355 44.345868 44.358292
44.366621 44.370854 44.370990 44.367029 44.358974 44.346826 44.330593 44.310278
44.285893 44.257442 44.224942 44.188401 44.147841 44.103273 44.054726 44.002215
43.945776 43.885429 43.821220 43.753172 43.681340 43.605757 43.526484 43.443563
43.357065 43.267039 43.173567 43.076705 42.976547 42.873155 42.766632 42.657050
42.544521 42.429121 42.310972 42.190157 42.066803 41.940997 41.812874 41.682524
41.550084 41.415646 41.279349 41.141287 41.001598 40.860375 40.717754 40.573824
40.428721 40.282527 40.135374 39.987339 39.838548 39.689070 39.539025 39.388475
39.237531 39.086247 38.934724 38.783009 38.631193 38.479315 38.327456 38.175645
38.023954 37.872404 37.721055 37.569922 37.419056 37.268461 37.118179 36.968209
36.818582 36.669292 36.520360 36.371774 36.223547 36.075662 35.928125 35.780913
35.634027 35.487439 35.341143 35.195111 35.049329 34.903766 34.758406 34.613216
34.468174 34.323248 34.178412 34.033635 33.888889
34.266667 34.444910 34.623186 34.801526 34.979964 35.158527 35.337251 35.516158
35.695282 35.874642 36.054271 36.234180 36.414399 36.594934 36.775812 36.957028
37.138607 37.320536 37.502833 37.685476 37.868477 38.051803 38.235460 38.419405
38.603634 38.788093 38.972770 39.157600 39.342560 39.527574 39.712610 39.897578
40.082437 40.267085 40.451471 40.635480 40.819051 41.002060 41.184433 41.366038
41.546791 41.726549 41.905221 42.082657 42.258757 42.433364 42.606375 42.777625
42.947007 43.114356 43.279560 43.442452 43.602922 43.760804 43.915989 44.068313
44.217672 44.363908 44.506919 44.646557 44.782727 44.915289 45.044155 45.169197
45.290336 45.407454 45.520482 45.629315 45.733892 45.834123 45.929954 46.021308
46.108142 46.190389 46.268014 46.340963 46.409207 46.472703 46.531429 46.585350
46.634452 46.678705 46.718101 46.752617 46.782249 46.806980 46.826808 46.841723
46.851723 46.856805 46.856967 46.852212 46.842539 46.827956 46.808463 46.784073
46.754790 46.720630 46.681601 46.637725 46.589013 46.535496 46.477187 46.414126
46.346333 46.273856 46.196721 46.114987 46.028688 45.937894 45.842646 45.743028
45.639090 45.530926 45.418598 45.302213 45.181839 45.057598 44.929568 44.797880
44.662623 44.523937 44.381920 44.236721 44.088443 43.937244 43.783232 43.626571
43.467370 43.305797 43.141965 42.976041 42.808136 42.638419 42.466998 42.294038
42.119642 41.943972 41.767125 41.589255 41.410452 41.230862 41.050568 40.869704
40.688343 40.506613 40.324573 40.142341 39.959966 39.777553 39.595142 39.412825
39.230632 39.048643 38.866878 38.685403 38.504231 38.323416 38.142961 37.962909
37.783254 37.604029 37.425220 37.246851 37.068900 36.891382 36.714269 36.537567
36.361245 36.185298 36.009693 35.834418 35.659436 35.484729 35.310259 35.136002
34.961919 34.787981 34.614149 34.440390 34.266667
34.644444 34.852438 35.060469 35.268578 35.476799 35.685173 35.893730 36.102511
36.311541 36.520859 36.730483 36.940451 37.150773 37.361483 37.572582 37.784101
37.996030 38.208395 38.421176 38.634390 38.848007 39.062037 39.276437 39.491207
39.706293 39.921684 40.137312 40.353157 40.569137 40.785219 41.001308 41.217359
41.433262 41.648962 41.864334 42.079310 42.293753 42.507581 42.720646 42.932854
43.144045 43.354115 43.562893 43.770267 43.976055 44.180139 44.382329 44.582501
44.780462 44.976083 45.169168 45.359586 45.547143 45.731707 45.913087 46.091154
46.265722 46.436667 46.603812 46.767038 46.926179 47.081125 47.231721 47.377867
47.519420 47.656293 47.788356 47.915533 48.037710 48.154823 48.266770 48.373498
48.474923 48.571001 48.661659 48.746865 48.826558 48.900715 48.969286 49.032254
49.089582 49.141255 49.187247 49.227548 49.262138 49.291013 49.314157 49.331570
49.343242 49.349174 49.349363 49.343811 49.332520 49.315493 49.292739 49.264262
49.230077 49.190191 49.144627 49.093393 49.036519 48.974021 48.905937 48.832286
48.753119 48.668462 48.578375 48.482895 48.382094 48.276017 48.164752 48.048352
47.926921 47.800523 47.669277 47.533257 47.392597 47.247384 47.097764 46.943837
46.785761 46.623645 46.457660 46.287924 46.114617 45.937863 45.757851 45.574710
45.388635 45.199756 45.008271 44.814311 44.618074 44.419690 44.219354 44.017191
43.813393 43.608078 43.401431 43.193562 42.984648 42.774788 42.564150 42.352823
42.140960 41.928642 41.716008 41.503125 41.290121 41.077050 40.864025 40.651089
40.438339 40.225807 40.013578 39.801668 39.590150 39.379031 39.168368 38.958158
38.748445 38.539219 38.330510 38.122298 37.914604 37.707401 37.500697 37.294459
37.088688 36.883344 36.678417 36.473867 36.269675 36.065797 35.862207 35.658860
35.455725 35.252755 35.049915 34.847158 34.644444
35.022222 35.259984 35.497791 35.735686 35.973714 36.211914 36.450333 36.689004
36.927972 37.167263 37.406923 37.646967 37.887437 38.128342 38.369717 38.611561
38.853904 39.096731 39.340068 39.583886 39.828201 40.072972 40.318206 40.563848
40.809892 41.056269 41.302961 41.549882 41.797005 42.044226 42.291502 42.538716
42.785810 43.032651 43.279167 43.525208 43.770690 44.015446 44.259378 44.502307
44.744121 44.984627 45.223702 45.461144 45.696818 45.930512 46.162084 46.391315
46.618058 46.842088 47.063257 47.281337 47.496179 47.707558 47.915325 48.119263
48.319225 48.515001 48.706453 48.893380 49.075654 49.253087 49.425560 49.592901
49.755003 49.911709 50.062927 50.208517 50.348398 50.482448 50.610600 50.732748
50.848839 50.958782 51.062536 51.160025 51.251218 51.336055 51.414511 51.486539
51.552122 51.611225 51.663835 51.709926 51.749490 51.782510 51.808982 51.828893
51.842242 51.849025 51.849241 51.842891 51.829976 51.810504 51.784478 51.751911
51.712809 51.667192 51.615068 51.556467 51.491401 51.419909 51.342009 51.257750
51.167157 51.070294 50.967193 50.857931 50.742552 50.621148 50.493774 50.360539
50.221509 50.076810 49.926524 49.770793 49.609710 49.443435 49.272076 49.095808
48.914750 48.729092 48.538965 48.344570 48.146048 47.943612 47.737407 47.527655
47.314505 47.098184 46.878843 46.656711 46.431938 46.204752 45.975298 45.743800
45.510399 45.275312 45.038670 44.800681 44.561467 44.321224 44.080063 43.838167
43.595633 43.352630 43.109242 42.865622 42.621840 42.378033 42.134258 41.890633
41.647202 41.404068 41.161259 40.918863 40.676896 40.435429 40.194465 39.954061
39.714209 39.474951 39.236269 38.998190 38.760689 38.523780 38.287429 38.051640
37.816371 37.581616 37.347328 37.113490 36.880054 36.646992 36.414254 36.181806
35.949594 35.717581 35.485712 35.253943 35.022222
35.400000 35.667552 35.935154 36.202858 36.470711 36.738766 37.007064 37.275658
37.544582 37.813888 38.083601 38.353770 38.624409 38.895565 39.167240 39.439474
39.712258 39.985624 40.259549 40.534057 40.809110 41.084721 41.360837 41.637459
41.914517 42.192000 42.469822 42.747955 43.026295 43.304802 43.583352 43.861889
44.140271 44.418426 44.696194 44.973486 45.250125 45.526006 45.800935 46.074791
46.347366 46.618525 46.888044 47.155778 47.421489 47.685023 47.946133 48.204656
48.460339 48.713012 48.962422 49.208395 49.450678 49.689097 49.923404 50.153429
50.378929 50.599742 50.815635 51.026457 51.231987 51.432085 51.626547 51.815244
51.997993 52.174678 52.345135 52.509264 52.666919 52.818016 52.962430 53.100092
53.230893 53.354780 53.471662 53.581499 53.684216 53.779783 53.868140 53.949267
54.023118 54.089679 54.148914 54.200815 54.245358 54.282538 54.312338 54.334756
54.349783 54.357418 54.357660 54.350510 54.335971 54.314046 54.284745 54.248074
54.204050 54.152680 54.093991 54.027993 53.954723 53.874197 53.786464 53.691545
53.589503 53.480369 53.364220 53.241098 53.111097 52.974271 52.830732 52.680549
52.523852 52.360724 52.191315 52.015725 51.834123 51.646624 51.453415 51.254626
51.050463 50.841069 50.626665 50.407406 50.183526 49.955189 49.722640 49.486050
49.245671 49.001676 48.754323 48.503784 48.250318 47.994094 47.735368 47.474303
47.211150 46.946063 46.679283 46.410954 46.141306 45.870469 45.598660 45.325995
45.052673 44.778798 44.504550 44.230018 43.955364 43.680659 43.406048 43.131586
42.857400 42.583527 42.310076 42.037071 41.764601 41.492675 41.221365 40.950669
40.680639 40.411262 40.142575 39.874553 39.607219 39.340539 39.074520 38.809121
38.544338 38.280122 38.016458 37.753291 37.490597 37.228317 36.966418 36.704839
36.443539 36.182457 35.921545 35.660744 35.400000
35.777778 36.075141 36.372562 36.670096 36.967802 37.265731 37.563942 37.862478
38.161399 38.460738 38.760553 39.060867 39.361733 39.663164 39.965207 40.267859
40.571163 40.875101 41.179704 41.484942 41.790835 42.097333 42.404446 42.712106
43.020308 43.328965 43.638059 43.947482 44.257199 44.567082 44.877079 45.187041
45.496899 45.806483 46.115705 46.424375 46.732387 47.039532 47.345686 47.650621
47.954197 48.256169 48.556382 48.854576 49.150582 49.444131 49.735041 50.023034
50.307921 50.589419 50.867333 51.141378 51.411359 51.676995 51.938090 52.194371
52.445648 52.691657 52.932219 53.167081 53.396078 53.618974 53.835616 54.045789
54.249357 54.446124 54.635972 54.818726 54.994288 55.162504 55.323293 55.476524
55.622131 55.760004 55.890093 56.012308 56.126612 56.232931 56.331239 56.421479
56.503634 56.577661 56.643549 56.701266 56.750806 56.792147 56.825287 56.850212
56.866922 56.875411 56.875679 56.867727 56.851558 56.827178 56.794591 56.753813
56.704848 56.647720 56.582438 56.509034 56.427523 56.337949 56.240332 56.134732
56.021177 55.899741 55.770465 55.633441 55.488721 55.336418 55.176599 55.009398
54.834899 54.653256 54.464570 54.269020 54.066725 53.857883 53.642631 53.421190
53.193711 52.960434 52.721527 52.477244 52.227765 51.973360 51.714217 51.450614
51.182746 50.910900 50.635270 50.356145 50.073720 49.788282 49.500019 49.209215
48.916049 48.620797 48.323626 48.024800 47.724474 47.422896 47.120206 46.816636
46.512308 46.207435 45.902124 45.596566 45.290850 44.985146 44.679526 44.374139
44.069037 43.764349 43.460111 43.156431 42.853327 42.550887 42.249115 41.948080
41.647769 41.348235 41.049453 40.751457 40.454211 40.157733 39.861978 39.566949
39.272593 38.978899 38.685809 38.393298 38.101304 37.809793 37.518698 37.227975
36.937557 36.647393 36.357415 36.067565 35.777778
36.155556 36.482754 36.810016 37.137408 37.464987 37.792823 38.120966 38.449484
38.778421 39.107842 39.437780 39.768297 40.099414 40.431187 40.763625 41.096775
41.430631 41.765233 42.100555 42.436628 42.773409 43.110914 43.449082 43.787914
44.127328 44.467310 44.807756 45.148636 45.489822 45.831265 46.172815 46.514403
46.855857 47.197087 47.537897 47.878178 48.217712 48.556370 48.893910 49.230186
49.564937 49.897996 50.229086 50.558025 50.884519 51.208374 51.529283 51.847041
52.161335 52.471951 52.778572 53.080981 53.378861 53.671997 53.960076 54.242886
54.520126 54.791591 55.056993 55.316139 55.568760 55.814678 56.053643 56.285494
56.510004 56.727033 56.936377 57.137916 57.331471 57.516942 57.694175 57.863089
58.023555 58.175509 58.318845 58.453515 58.579432 58.696563 58.804839 58.904239
58.994709 59.076237 59.148782 59.212338 59.266878 59.312396 59.348877 59.376319
59.394712 59.404056 59.404350 59.395594 59.377793 59.350950 59.315076 59.270174
59.216265 59.153354 59.081472 59.000628 58.910864 58.812196 58.704678 58.588335
58.463239 58.329425 58.186982 58.035960 57.876469 57.708573 57.532405 57.348049
57.155661 56.955343 56.747277 56.531585 56.308474 56.078085 55.840650 55.596330
55.345379 55.087974 54.824392 54.554825 54.279564 53.998815 53.712883 53.421983
53.126427 52.826436 52.522327 52.214320 51.902735 51.587785 51.269789 50.948952
50.625584 50.299880 49.972137 49.642537 49.311362 48.978778 48.645048 48.310322
47.974842 47.638736 47.302229 46.965426 46.628529 46.291625 45.954891 45.618393
45.282285 44.946614 44.611511 44.277003 43.943200 43.610110 43.277820 42.946324
42.615688 42.285890 41.956975 41.628911 41.301723 40.975367 40.649852 40.325123
40.001175 39.677945 39.355412 39.033508 38.712200 38.391416 38.071111 37.751210
37.431661 37.112386 36.793326 36.474405 36.155556
36.533333 36.890391 37.247521 37.604791 37.962276 38.320038 38.678153 39.036673
39.395673 39.755196 40.115313 40.476056 40.837491 41.199634 41.562545 41.926226
42.290726 42.656031 43.022178 43.389134 43.756924 44.125493 44.494853 44.864926
45.235707 45.607095 45.979067 46.351497 46.724344 47.097456 47.470769 47.844108
48.217386 48.590403 48.963049 49.335098 49.706419 50.076760 50.445969 50.813771
51.179993 51.544338 51.906615 52.266508 52.623809 52.978187 53.329420 53.677168
54.021195 54.361156 54.696810 55.027808 55.353908 55.674764 55.990137 56.299688
56.603187 56.900307 57.190828 57.474443 57.750947 58.020053 58.281575 58.535251
58.780915 59.018332 59.247358 59.467786 59.679496 59.882306 60.076119 60.260784
60.436221 60.602306 60.758979 60.906138 61.043741 61.171707 61.290007 61.398580
61.497407 61.586442 61.665675 61.735074 61.794632 61.844329 61.884163 61.914121
61.934202 61.944402 61.944721 61.935161 61.915722 61.886415 61.847240 61.798214
61.739340 61.670643 61.592131 61.503839 61.405780 61.298003 61.180527 61.053419
60.916709 60.770481 60.614780 60.449710 60.275333 60.091779 59.899125 59.697530
59.487091 59.267994 59.040360 58.804400 58.560260 58.308179 58.048323 57.780960
57.506275 57.224561 56.936023 56.640972 56.339631 56.032328 55.719297 55.400879
55.077314 54.748954 54.416039 54.078925 53.737850 53.393168 53.045111 52.694025
52.340133 51.983769 51.625143 51.264572 50.902250 50.538476 50.173423 49.807371
49.440471 49.072980 48.705026 48.336841 47.968532 47.600305 47.232244 46.864528
46.497220 46.130474 45.764331 45.398918 45.034257 44.670452 44.307504 43.945494
43.584408 43.224302 42.865147 42.506979 42.149755 41.793493 41.438137 41.083686
40.730076 40.377291 40.025258 39.673945 39.323275 38.973204 38.623650 38.274558
37.925844 37.577445 37.229276 36.881266 36.533333
36.911111 37.298053 37.685073 38.072253 38.459664 38.847390 39.235494 39.624061
40.013144 40.402824 40.793143 41.184177 41.575954 41.968545 42.361960 42.756262
43.151444 43.547558 43.944575 44.342536 44.741391 45.141164 45.541783 45.943254
46.345483 46.748453 47.152046 47.556225 47.960843 48.365841 48.771046 49.176373
49.581622 49.986684 50.391328 50.795424 51.198712 51.601036 52.002110 52.401755
52.799660 53.195623 53.589312 53.980504 54.368848 54.754105 55.135907 55.514002
55.888014 56.257679 56.622617 56.982560 57.337127 57.686051 58.028957 58.365584
58.695569 59.018661 59.334514 59.642893 59.943473 60.236039 60.520291 60.796036
61.063004 61.321025 61.569860 61.809365 62.039331 62.259641 62.470116 62.670663
62.861133 63.041456 63.211510 63.371244 63.520562 63.659429 63.787771 63.905567
64.012760 64.109338 64.195263 64.270528 64.335107 64.388997 64.432183 64.464665
64.486434 64.497491 64.497836 64.487467 64.466393 64.434611 64.392137 64.338969
64.275129 64.200621 64.115475 64.019698 63.913334 63.796397 63.668947 63.531005
63.382652 63.223924 63.054920 62.875694 62.686370 62.487022 62.277802 62.058806
61.830215 61.592149 61.344821 61.088376 60.823058 60.549038 60.266591 59.975910
59.677301 59.370979 59.057274 58.736422 58.408774 58.074581 57.734211 57.387927
57.036107 56.679019 56.317050 55.950466 55.579655 55.204878 54.826517 54.444827
54.060176 53.672806 53.283072 52.891197 52.497517 52.102234 51.705664 51.307985
50.909488 50.510328 50.110768 49.710939 49.311076 48.911284 48.511772 48.112618
47.714003 47.315981 46.918705 46.522208 46.126613 45.731931 45.338262 44.945596
44.554008 44.163470 43.774032 43.385653 42.998360 42.612098 42.226875 41.842623
41.459331 41.076924 40.695374 40.314596 39.934550 39.555146 39.176330 38.798009
38.420117 38.042562 37.665269 37.288146 36.911111
37.288889 37.705739 38.122678 38.539787 38.957159 39.374867 39.793005 40.211637
40.630855 41.050711 41.471294 41.892642 42.314838 42.737903 43.161913 43.586870
44.012839 44.439803 44.867813 45.296830 45.726890 46.157931 46.589968 47.022916
47.456771 47.891418 48.326832 48.762870 49.199482 49.636496 50.073836 50.511301
50.948787 51.386062 51.822997 52.259326 52.694894 53.129407 53.562680 53.994392
54.424333 54.852155 55.277624 55.700370 56.120138 56.536538 56.949299 57.358016
57.762404 58.162051 58.556665 58.945828 59.329246 59.706507 60.077320 60.441281
60.798109 61.147416 61.488936 61.822303 62.147269 62.463495 62.770758 63.068748
63.357269 63.636044 63.904906 64.163611 64.412021 64.649929 64.877221 65.093726
65.299356 65.493971 65.677508 65.849854 66.010965 66.160756 66.299198 66.426227
66.541829 66.645955 66.738601 66.819732 66.889350 66.947432 66.993982 67.028986
67.052447 67.064361 67.064730 67.053555 67.030837 66.996584 66.950796 66.893489
66.824663 66.744343 66.652532 66.549266 66.434554 66.308446 66.170959 66.022163
65.862087 65.690822 65.508412 65.314976 65.110577 64.895361 64.669417 64.432922
64.185989 63.928832 63.661590 63.384511 63.097764 62.801630 62.496308 62.182111
61.859265 61.528113 61.188905 60.842010 60.487696 60.126357 59.758273 59.383855
59.003393 58.617305 58.225886 57.829559 57.428615 57.023472 56.614416 56.201857
55.786065 55.367436 54.946224 54.522805 54.097412 53.670400 53.241975 52.812466
52.382056 51.951043 51.519583 51.087945 50.656256 50.224756 49.793544 49.362827
48.932678 48.503274 48.074662 47.646989 47.220278 46.794646 46.370093 45.946711
45.524478 45.103459 44.683615 44.264985 43.847517 43.431226 43.016044 42.601967
42.188917 41.776870 41.365738 40.955482 40.546007 40.137257 39.729135 39.321572
38.914468 38.507744 38.101300 37.695047 37.288889
37.666667 38.113451 38.560329 39.007400 39.454750 39.902480 40.350668 40.799414
41.248784 41.698877 42.149744 42.601479 43.054117 43.507744 43.962377 44.418091
44.874885 45.332819 45.791870 46.252082 46.713407 47.175874 47.639405 48.104009
48.569581 49.036106 49.503450 49.971572 50.440306 50.909586 51.379211 51.849088
52.318982 52.788771 53.258187 53.727075 54.195137 54.662187 55.127893 55.592043
56.054273 56.514344 56.971865 57.426571 57.878048 58.326011 58.770026 59.209790
59.644858 60.074914 60.499506 60.918313 61.330883 61.736895 62.135905 62.527598
62.911544 63.287443 63.654885 64.013589 64.363173 64.703379 65.033858 65.354381
65.664631 65.964413 66.253448 66.531571 66.798543 67.054230 67.298431 67.531042
67.751899 67.960926 68.157990 68.343039 68.515972 68.676755 68.825312 68.961626
69.085640 69.197349 69.296714 69.383735 69.458388 69.520677 69.570585 69.608119
69.633270 69.646043 69.646436 69.634450 69.610091 69.573358 69.524261 69.462799
69.388990 69.302834 69.204359 69.093567 68.970502 68.835171 68.687635 68.527912
68.356086 68.172189 67.976330 67.768562 67.549022 67.317787 67.075028 66.820851
66.555460 66.278992 65.991690 65.693722 65.385370 65.066834 64.738434 64.400398
64.053085 63.696751 63.331785 62.958468 62.577216 62.188329 61.792244 61.389276
60.979873 60.564359 60.143190 59.716689 59.285312 58.849376 58.409331 57.965482
57.518265 57.067968 56.615010 56.159655 55.702299 55.243182 54.782671 54.320980
53.858446 53.395252 52.931704 52.467953 52.004273 51.540785 51.077727 50.615193
50.153386 49.692371 49.232318 48.773265 48.315350 47.858585 47.403078 46.948818
46.495884 46.044243 45.593948 45.144948 44.697269 44.250844 43.805678 43.361689
42.918861 42.477100 42.036373 41.596577 41.157660 40.719516 40.282077 39.845234
39.408906 38.972982 38.537372 38.101967 37.666667
38.044444 38.521185 38.998030 39.475080 39.952444 40.430212 40.908494 41.387369
41.866947 42.347293 42.828512 43.310654 43.793816 44.278030 44.763385 45.249891
45.737624 46.226573 46.716798 47.208262 47.701007 48.194970 48.690171 49.186518
49.684009 50.182517 50.682017 51.182349 51.683458 52.185150 52.687340 53.189799
53.692409 54.194905 54.697137 55.198802 55.699719 56.199548 56.698075 57.194927
57.689857 58.182461 58.672464 59.159433 59.643067 60.122908 60.598635 61.069773
61.535983 61.996780 62.451814 62.900595 63.342771 63.777857 64.205504 64.625239
65.036724 65.439504 65.833263 66.217571 66.592135 66.956559 67.310581 67.653842
67.986112 68.307074 68.616533 68.914214 69.199959 69.473536 69.734819 69.983618
70.219841 70.443334 70.654034 70.851821 71.036657 71.208450 71.367180 71.512783