<?xml version="1.0"?>
<VTKFile type="ImageData" version="0.1" byte_order="LittleEndian">
  <ImageData WholeExtent="0 180 0 180 0 0" Origin="0.0 0.0 0.0" Spacing="0.05 0.05 1">
    <Piece Extent="0 180 0 180 0 0">
      <PointData Scalars="Temperature">
        <DataArray type="Float32" Name="Temperature" format="ascii">
32.000000 32.000000 32.000000 32.000000 32.000000 32.000000 32.000000 32.000000 32.000000 32.000000 32.000000 32.000000 32.000000 32.000000 32.000000 32.000000 32.000000 32.000000 32.000000 32.000000 32.000000 32.000000 32.000000 32.000000 32.000000 32.000000 32.000000 32.000000 32.000000 32.000000 32.000000 32.000000 32.000000 32.000000 32.000000 32.000000 32.000000 32.000000 32.000000 32.000000 32.000000 32.000000 32.000000 32.000000 32.000000 32.000000 32.000000 32.000000 32.000000 32.000000 32.000000 32.000000 32.000000 32.000000 32.000000 32.000000 32.000000 32.000000 32.000000 32.000000 32.000000 32.000000 32.000000 32.000000 32.000000 32.000000 32.000000 32.000000 32.000000 32.000000 32.000000 32.000000 32.000000 32.000000 32.000000 32.000000 32.000000 32.000000 32.000000 32.000000 32.000000 32.000000 32.000000 32.000000 32.000000 32.000000 32.000000 32.000000 32.000000 32.000000 32.000000 32.000000 32.000000 32.000000 32.000000 32.000000 32.000000 32.000000 32.000000 32.000000 32.000000 32.000000 32.000000 32.000000 32.000000 32.000000 32.000000 32.000000 32.000000 32.000000 32.000000 32.000000 32.000000 32.000000 32.000000 32.000000 32.000000 32.000000 32.000000 32.000000 32.000000 32.000000 32.000000 32.000000 32.000000 32.000000 32.000000 32.000000 32.000000 32.000000 32.000000 32.000000 32.000000 32.000000 32.000000 32.000000 32.000000 32.000000 32.000000 32.000000 32.000000 32.000000 32.000000 32.000000 32.000000 32.000000 32.000000 32.000000 32.000000 32.000000 32.000000 32.000000 32.000000 32.000000 32.000000 32.000000 32.000000 32.000000 32.000000 32.000000 32.000000 32.000000 32.000000 32.000000 32.000000 32.000000 32.000000 32.000000 32.000000 32.000000 32.000000 32.000000 32.000000 32.000000 32.000000 32.000000 32.000000 32.000000 32.000000 32.000000 32.000000
32.377778 32.399632 32.421500 32.443398 32.465337 32.487336 32.509405 32.531560 32.553811 32.576176 32.598661 32.621284 32.644049 32.666975 32.690062 32.713330 32.736775 32.760417 32.784248 32.808288 32.832527 32.856982 32.881641 32.906520 32.931602 32.956902 32.982401 33.008112 33.034010 33.060109 33.086381 33.112835 33.139442 33.166209 33.193102 33.220127 33.247246 33.274465 33.301743 33.329081 33.356436 33.383810 33.411156 33.438474 33.465715 33.492876 33.519909 33.546810 33.573527 33.600057 33.626348 33.652393 33.678144 33.703591 33.728687 33.753423 33.777752 33.801665 33.825116 33.848097 33.870565 33.892512 33.913897 33.934713 33.954921 33.974515 33.993461 34.011753 34.029358 34.046273 34.062469 34.077943 34.092669 34.106645 34.119849 34.132279 34.143916 34.154760 34.164793 34.174018 34.182418 34.189996 34.196739 34.202650 34.207719 34.211947 34.215328 34.217864 34.219549 34.220385 34.220370 34.219505 34.217791 34.215227 34.211817 34.207561 34.202464 34.196526 34.189756 34.182152 34.173726 34.164478 34.154421 34.143555 34.131897 34.119446 34.106225 34.092231 34.077491 34.062003 34.045797 34.028872 34.011261 33.992966 33.974020 33.954427 33.934225 33.913418 33.892046 33.870116 33.847669 33.824713 33.801293 33.777416 33.753129 33.728440 33.703397 33.678009 33.652325 33.626353 33.600144 33.573704 33.547084 33.520290 33.493372 33.466336 33.439230 33.412058 33.384868 33.357661 33.330484 33.303337 33.276263 33.249260 33.222370 33.195588 33.168952 33.142457 33.116137 33.089984 33.064031 33.038265 33.012717 32.987373 32.962258 32.937359 32.912696 32.888254 32.864051 32.840069 32.816323 32.792794 32.769493 32.746401 32.723525 32.700846 32.678366 32.656067 32.633949 32.611990 32.590191 32.568529 32.547001 32.525586 32.504277 32.483055 32.461910 32.440823 32.419783 32.398773 32.377778
32.755556 32.799274 32.843022 32.886827 32.930721 32.974727 33.018880 33.063197 33.107717 33.152453 33.197442 33.242693 33.288246 33.334102 33.380302 33.426840 33.473757 33.521043 33.568736 33.616818 33.665328 33.714242 33.763594 33.813354 33.863555 33.914159 33.965196 34.016621 34.068461 34.120663 34.173251 34.226165 34.279425 34.332964 34.386798 34.440855 34.495145 34.549591 34.604197 34.658882 34.713647 34.768404 34.823151 34.877795 34.932332 34.986666 35.040788 35.094599 35.148090 35.201159 35.253796 35.305898 35.357452 35.408358 35.458601 35.508084 35.556790 35.604625 35.651575 35.697546 35.742526 35.786428 35.829238 35.870876 35.911330 35.950524 35.988449 36.025036 36.060278 36.094111 36.126530 36.157480 36.186956 36.214908 36.241337 36.266197 36.289489 36.311175 36.331258 36.349705 36.366518 36.381672 36.395169 36.406989 36.417134 36.425589 36.432356 36.437426 36.440799 36.442470 36.442441 36.440711 36.437281 36.432154 36.425329 36.416818 36.406617 36.394743 36.381193 36.365987 36.349123 36.330628 36.310498 36.288767 36.265433 36.240533 36.214068 36.186082 36.156576 36.125601 36.093159 36.059309 36.024054 35.987460 35.949533 35.910344 35.869901 35.828282 35.785497 35.741629 35.696691 35.650771 35.603883 35.556120 35.507496 35.458108 35.407971 35.357184 35.305763 35.253809 35.201335 35.148445 35.095149 35.041550 34.987659 34.933576 34.879309 34.824955 34.770520 34.716098 34.661690 34.607388 34.553187 34.499175 34.445343 34.391773 34.338452 34.285457 34.232770 34.180460 34.128507 34.076973 34.025833 33.975143 33.924873 33.875072 33.825709 33.776824 33.728382 33.680417 33.632891 33.585832 33.539200 33.493014 33.447235 33.401873 33.356889 33.312288 33.268028 33.224108 33.180488 33.137161 33.094086 33.051251 33.008616 32.966165 32.923860 32.881679 32.839586 32.797556 32.755556
33.133333 33.198939 33.264588 33.330326 33.396191 33.462234 33.528485 33.594999 33.661800 33.728944 33.796448 33.864371 33.932719 34.001553 34.070871 34.140732 34.211127 34.282115 34.353673 34.425861 34.498647 34.572085 34.646136 34.720850 34.796176 34.872160 34.948742 35.025963 35.103751 35.182143 35.261056 35.340521 35.420445 35.500853 35.581641 35.662829 35.744304 35.826078 35.908031 35.990168 36.072360 36.154608 36.236775 36.318857 36.400710 36.482326 36.563558 36.644391 36.724677 36.804397 36.883400 36.961667 37.039046 37.115516 37.190927 37.265258 37.338361 37.410216 37.480681 37.549734 37.617242 37.683184 37.747433 37.809972 37.870682 37.929549 37.986462 38.041411 38.094294 38.145104 38.193750 38.240228 38.284455 38.326430 38.366082 38.403412 38.438356 38.470919 38.501047 38.528744 38.553967 38.576719 38.596966 38.614712 38.629930 38.642624 38.652775 38.660386 38.665446 38.667956 38.667912 38.665316 38.660169 38.652472 38.642236 38.629457 38.614156 38.596329 38.576002 38.553172 38.527874 38.500104 38.469905 38.437276 38.402268 38.364879 38.325172 38.283147 38.238875 38.192359 38.143680 38.092843 38.039942 37.984982 37.928067 37.869206 37.808513 37.746001 37.681791 37.615899 37.548455 37.479479 37.409106 37.337359 37.264380 37.190190 37.114939 37.038648 36.961469 36.883424 36.804665 36.725213 36.645221 36.564706 36.483821 36.402580 36.321131 36.239486 36.157787 36.076040 35.994385 35.912820 35.831478 35.750352 35.669566 35.589107 35.509091 35.429498 35.350435 35.271876 35.193917 35.116526 35.039789 34.963668 34.888239 34.813458 34.739391 34.665988 34.593305 34.521288 34.449981 34.379327 34.309361 34.240023 34.171336 34.103240 34.035746 33.968794 33.902387 33.836462 33.771014 33.705981 33.641350 33.577060 33.513088 33.449378 33.385899 33.322596 33.259433 33.196360 33.133333
33.511111 33.598637 33.686223 33.773922 33.861800 33.949902 34.038301 34.127030 34.216166 34.305735 34.395815 34.486421 34.577633 34.669455 34.761966 34.855160 34.949115 35.043811 35.139326 35.235625 35.332784 35.430755 35.529608 35.629283 35.729846 35.831220 35.933466 36.036494 36.140357 36.244951 36.350322 36.456352 36.563080 36.670373 36.778262 36.886601 36.995413 37.104539 37.213994 37.323609 37.433389 37.543156 37.652907 37.762456 37.871792 37.980722 38.089230 38.197118 38.304364 38.410767 38.516302 38.620766 38.724130 38.826195 38.926930 39.026138 39.123789 39.219690 39.313813 39.405973 39.496142 39.584145 39.669958 39.753416 39.834498 39.913050 39.989057 40.062376 40.132996 40.200789 40.265746 40.327753 40.386805 40.442802 40.495743 40.545538 40.592191 40.635626 40.675845 40.712787 40.746457 40.776802 40.803828 40.827495 40.847808 40.864737 40.878286 40.888436 40.895189 40.898537 40.898479 40.895016 40.888147 40.877883 40.864220 40.847179 40.826756 40.802980 40.775848 40.745399 40.711629 40.674590 40.634277 40.590754 40.544017 40.494143 40.441129 40.385066 40.325954 40.263895 40.198894 40.131067 40.060422 39.987088 39.911079 39.832536 39.751476 39.668055 39.582294 39.494358 39.404274 39.312217 39.218217 39.122460 39.024974 38.925955 38.825433 38.723607 38.620509 38.516341 38.411132 38.305086 38.198231 38.090769 37.982722 37.874293 37.765496 37.656530 37.547403 37.438305 37.329240 37.220389 37.111748 37.003486 36.895593 36.788227 36.681367 36.575162 36.469581 36.364760 36.260659 36.157401 36.054939 35.953380 35.852671 35.752904 35.654018 35.556094 35.459062 35.362989 35.267801 35.173550 35.080159 34.987664 34.895986 34.805148 34.715069 34.625759 34.537135 34.449195 34.361857 34.275107 34.188863 34.103102 34.017744 33.932755 33.848058 33.763611 33.679341 33.595196 33.511111
33.888889 33.998380 34.107942 34.217654 34.327579 34.437802 34.548374 34.659388 34.770882 34.882953 34.995627 35.109002 35.223093 35.337998 35.453715 35.570346 35.687871 35.806391 35.925870 36.046406 36.167946 36.290583 36.414249 36.539030 36.664839 36.791757 36.919679 37.048677 37.178630 37.309599 37.441447 37.574225 37.707778 37.842148 37.977161 38.112851 38.249027 38.385712 38.522701 38.660006 38.797410 38.934912 39.072286 39.209522 39.346381 39.482848 39.618675 39.753840 39.888090 40.021397 40.153507 40.284384 40.413778 40.541649 40.667749 40.792039 40.914275 41.034418 41.152233 41.267684 41.380545 41.490783 41.598185 41.702722 41.804195 41.902580 41.997694 42.089518 42.177883 42.262778 42.344051 42.421694 42.495572 42.565683 42.631909 42.694250 42.752605 42.806978 42.857283 42.903525 42.945633 42.983615 43.017414 43.047035 43.072437 43.093624 43.110567 43.123270 43.131715 43.135904 43.135832 43.131498 43.122910 43.110064 43.092980 43.071653 43.046114 43.016357 42.982426 42.944315 42.902081 42.855718 42.805298 42.750814 42.692354 42.629915 42.563599 42.493405 42.419452 42.341745 42.260418 42.175480 42.087084 41.995242 41.900125 41.801752 41.700307 41.595815 41.488478 41.378325 41.265571 41.150249 41.032587 40.912623 40.790595 40.666541 40.540708 40.413135 40.284075 40.153567 40.021865 39.889005 39.755243 39.620610 39.485361 39.349520 39.213336 39.076826 38.940234 38.803567 38.667059 38.530708 38.394737 38.259133 38.124105 37.989632 37.855906 37.722896 37.590778 37.459510 37.329253 37.199953 37.071754 36.944591 36.818592 36.693683 36.569972 36.447379 36.325994 36.205728 36.086654 35.968679 35.851856 35.736088 35.621413 35.507728 35.395054 35.283289 35.172437 35.062395 34.953152 34.844606 34.736733 34.629431 34.522664 34.416334 34.310392 34.204746 34.099334 33.994072 33.888889
34.266667 34.398175 34.529774 34.661544 34.793586 34.925966 35.058793 35.192121 35.326064 35.460662 35.596031 35.732197 35.869279 36.007283 36.146331 36.286412 36.427644 36.569999 36.713592 36.858374 37.004458 37.151772 37.300424 37.450321 37.601564 37.754039 37.907835 38.062820 38.219073 38.376438 38.534985 38.694535 38.855146 39.016621 39.179003 39.342076 39.505870 39.670151 39.834936 39.999974 40.165269 40.330554 40.495824 40.660797 40.825457 40.989513 41.152938 41.315434 41.476966 41.637232 41.796190 41.953537 42.109227 42.262959 42.414684 42.564105 42.711176 42.855608 42.997353 43.136136 43.271912 43.404420 43.533619 43.659264 43.781321 43.899561 44.013957 44.124300 44.230569 44.332574 44.430303 44.523584 44.612412 44.696635 44.776252 44.851134 44.921282 44.986585 45.047050 45.102583 45.153192 45.198801 45.239419 45.274987 45.305512 45.330951 45.351311 45.366563 45.376710 45.381741 45.381654 45.376452 45.366132 45.350710 45.330181 45.304575 45.273885 45.238156 45.197379 45.151616 45.100857 45.045180 44.984576 44.919141 44.848868 44.773869 44.694143 44.609821 44.520905 44.427547 44.329754 44.227697 44.121391 44.011028 43.896628 43.778403 43.656380 43.530791 43.401669 43.269264 43.133615 42.994988 42.853426 42.709211 42.562388 42.413250 42.261845 42.108473 41.953183 41.796280 41.637810 41.478081 41.317135 41.155278 40.992546 40.829242 40.665392 40.501292 40.336959 40.172678 40.008456 39.844566 39.681001 39.518019 39.355602 39.193991 39.033153 38.873312 38.714422 38.556687 38.400048 38.244689 38.090540 37.937760 37.786270 37.636209 37.487484 37.340215 37.194300 37.049835 36.906712 36.765006 36.624601 36.485553 36.347741 36.211199 36.075805 35.941573 35.808379 35.676219 35.544969 35.414607 35.285011 35.156144 35.027885 34.900184 34.772925 34.646042 34.519427 34.393002 34.266667
34.644444 34.798037 34.951731 35.105637 35.259843 35.414471 35.569592 35.725337 35.881761 36.039000 36.197091 36.356175 36.516269 36.677515 36.839911 37.003597 37.168551 37.334911 37.502631 37.671845 37.842484 38.014675 38.188326 38.363555 38.540246 38.718508 38.898197 39.079414 39.261989 39.446008 39.631279 39.817874 40.005575 40.194440 40.384228 40.574982 40.766438 40.958624 41.151254 41.344341 41.537583 41.730976 41.924201 42.117242 42.309765 42.501744 42.692832 42.882993 43.071875 43.259431 43.445306 43.629447 43.811501 43.991409 44.168823 44.343683 44.515648 44.684661 44.850390 45.012782 45.171520 45.326556 45.477592 45.624584 45.767255 45.905570 46.039271 46.168332 46.292518 46.411812 46.526004 46.635081 46.738857 46.837329 46.930333 47.017872 47.099804 47.176136 47.246750 47.311655 47.370752 47.424053 47.471480 47.513043 47.548682 47.578408 47.602177 47.619998 47.631845 47.637723 47.637623 47.631545 47.619498 47.601479 47.577513 47.547594 47.511763 47.470013 47.422402 47.368922 47.309651 47.244578 47.173804 47.097318 47.015240 46.927566 46.834436 46.735849 46.631970 46.522804 46.408538 46.289185 46.164956 46.035871 45.902166 45.763869 45.621239 45.474311 45.323367 45.168450 45.009861 44.847650 44.682137 44.513376 44.341702 44.167172 43.990133 43.810643 43.629057 43.445433 43.260129 43.073199 42.885002 42.695586 42.505308 42.314205 42.122628 41.930605 41.738474 41.546253 41.354266 41.162515 40.971311 40.780640 40.590794 40.401744 40.213760 40.026800 39.841110 39.656632 39.473590 39.291910 39.111792 38.933149 38.756154 38.580708 38.406959 38.234796 38.064342 37.895475 37.728295 37.562670 37.398676 37.236174 37.075216 36.915660 36.757533 36.600691 36.445139 36.290731 36.137453 35.985158 35.833814 35.683277 35.533495 35.384331 35.235714 35.087514 34.939647 34.791990 34.644444
35.022222 35.197972 35.373843 35.549946 35.726413 35.903338 36.080864 36.259067 36.438098 36.618011 36.798965 36.980993 37.164256 37.348765 37.534681 37.721991 37.910856 38.101236 38.293289 38.486948 38.682366 38.879449 39.078339 39.278917 39.481314 39.685382 39.891239 40.098710 40.307900 40.518601 40.730906 40.944580 41.159696 41.375992 41.593526 41.812009 42.031479 42.251623 42.472463 42.693662 42.915225 43.136793 43.358356 43.579537 43.800312 44.020290 44.239431 44.457337 44.673956 44.888883 45.102058 45.313075 45.521867 45.728031 45.931497 46.131869 46.329078 46.522739 46.712784 46.898844 47.080858 47.258474 47.431637 47.600018 47.763571 47.921991 48.075240 48.223040 48.365364 48.501958 48.632806 48.757682 48.876578 48.989295 49.095833 49.196020 49.289861 49.377210 49.458076 49.532338 49.600007 49.660986 49.715286 49.762831 49.803633 49.837634 49.864845 49.885229 49.898791 49.905514 49.905400 49.898450 49.884661 49.864052 49.836618 49.802396 49.761377 49.713618 49.659109 49.597927 49.530060 49.455607 49.374558 49.287034 49.193028 49.092687 48.986006 48.873159 48.754147 48.629170 48.498237 48.361576 48.219205 48.071379 47.918125 47.759726 47.596219 47.427913 47.254855 47.077376 46.895534 46.709682 46.519883 46.326511 46.129633 45.929640 45.726601 45.520917 45.312659 45.102235 44.889711 44.675501 44.459664 44.242611 44.024395 43.805419 43.585726 43.365709 43.145396 42.925169 42.705039 42.485371 42.266159 42.047749 41.830117 41.613585 41.398112 41.183996 40.971178 40.759927 40.550169 40.342145 40.135763 39.931238 39.728459 39.527614 39.328579 39.131511 38.936275 38.742997 38.551533 38.361982 38.174188 37.988224 37.803928 37.621346 37.440312 37.260844 37.082775 36.906099 36.730650 36.556397 36.383177 36.210937 36.039518 35.868849 35.698775 35.529208 35.360002 35.191052 35.022222
35.400000 35.597993 35.796118 35.994518 36.193309 36.392648 36.592631 36.793424 36.995103 37.197841 37.401691 37.606832 37.813290 38.021248 38.230706 38.441844 38.654637 38.869262 39.085663 39.304013 39.524224 39.746462 39.970609 40.196819 40.424942 40.655119 40.887168 41.121217 41.357049 41.594776 41.834151 42.075264 42.317838 42.561944 42.807275 43.053881 43.301425 43.549938 43.799055 44.048788 44.298746 44.548922 44.798904 45.048667 45.297780 45.546202 45.793488 46.039583 46.284034 46.526774 46.767344 47.005669 47.241293 47.474135 47.703743 47.930036 48.152572 48.371271 48.585707 48.795805 49.001158 49.201698 49.397042 49.587131 49.771607 49.950424 50.123252 50.290054 50.450533 50.604663 50.752175 50.893057 51.027072 51.154214 51.274277 51.387265 51.493001 51.591495 51.682597 51.766322 51.842546 51.911286 51.972443 52.026034 52.071983 52.110305 52.140948 52.163920 52.179193 52.186770 52.186643 52.178811 52.163285 52.140060 52.109168 52.070600 52.024407 51.970578 51.909187 51.840220 51.763775 51.679837 51.588530 51.489841 51.383921 51.270760 51.150537 51.023249 50.889105 50.748110 50.600503 50.446299 50.285769 50.118937 49.946106 49.767313 49.582890 49.392885 49.197660 48.997274 48.792115 48.582251 48.368094 48.149719 47.927558 47.701690 47.472565 47.240262 47.005240 46.767580 46.527745 46.285810 46.042242 45.797105 45.550861 45.303566 45.055672 44.807219 44.558645 44.309977 44.061633 43.813621 43.566339 43.319775 43.074303 42.829890 42.586883 42.345228 42.105243 41.866855 41.630350 41.395636 41.162966 40.932231 40.703652 40.477100 40.252766 40.030505 39.810476 39.592520 39.376763 39.163037 38.951435 38.741781 38.534137 38.328320 38.124363 37.922080 37.721476 37.522362 37.324716 37.128352 36.933223 36.739144 36.546047 36.353753 36.162171 35.971131 35.780524 35.590190 35.400000
35.777778 35.998104 36.218586 36.439360 36.660596 36.882412 37.104989 37.328425 37.552908 37.778513 38.005435 38.233721 38.463572 38.695004 38.928221 39.163210 39.400170 39.639058 39.880068 40.123124 40.368413 40.615824 40.865533 41.117393 41.371570 41.627880 41.886472 42.147127 42.409977 42.674764 42.941603 43.210200 43.480646 43.752616 44.026177 44.300969 44.577039 44.853993 45.131855 45.410203 45.689038 45.967913 46.246805 46.525246 46.803195 47.080165 47.356096 47.630489 47.903270 48.173932 48.442390 48.708134 48.971073 49.230698 49.486917 49.739229 49.987542 50.231370 50.470624 50.704840 50.933934 51.157467 51.375365 51.587216 51.792959 51.992214 52.184931 52.370763 52.549676 52.721355 52.885779 53.042670 53.192018 53.333578 53.467352 53.593128 53.710915 53.820536 53.922003 54.015170 54.100053 54.176533 54.244628 54.304246 54.355403 54.398031 54.432143 54.457696 54.474697 54.483126 54.482985 54.474276 54.456994 54.431164 54.396776 54.353876 54.302451 54.242570 54.174216 54.097485 54.012358 53.918957 53.817263 53.707428 53.589437 53.463471 53.329521 53.187801 53.038310 52.881295 52.716767 52.545007 52.366037 52.180174 51.987453 51.788227 51.582543 51.370787 51.153021 50.929662 50.700782 50.466828 50.227883 49.984417 49.736520 49.484683 49.228999 48.969975 48.707704 48.442701 48.175059 47.905294 47.633491 47.360166 47.085392 46.809677 46.533080 46.256097 45.978769 45.701572 45.424530 45.148097 44.872273 44.597488 44.323720 44.051368 43.780387 43.511147 43.243576 42.978012 42.714362 42.452927 42.193593 41.936625 41.681889 41.429614 41.179647 40.932182 40.687049 40.444405 40.204067 39.966158 39.730482 39.497127 39.265892 39.036827 38.809727 38.584612 38.361271 38.139695 37.919673 37.701166 37.483966 37.268009 37.053090 36.839121 36.625905 36.413331 36.201213 35.989419 35.777778
36.155556 36.398321 36.641249 36.884520 37.128275 37.372710 37.617944 37.864184 38.111522 38.360176 38.610210 38.861846 39.115120 39.370255 39.627257 39.886346 40.147494 40.410920 40.676558 40.944620 41.215004 41.487911 41.763202 42.041064 42.321318 42.604136 42.889299 43.176960 43.466861 43.759134 44.053481 44.350010 44.648383 44.948686 45.250543 45.554013 45.858684 46.164589 46.471283 46.778773 47.086583 47.394695 47.702605 48.010274 48.317174 48.623246 48.927943 49.231190 49.532426 49.831563 50.128034 50.421740 50.712116 50.999056 51.282001 51.560845 51.835043 52.104489 52.368659 52.627454 52.880373 53.127329 53.367851 53.601862 53.828926 54.048980 54.261625 54.466812 54.664181 54.853700 55.035045 55.208198 55.372876 55.529074 55.676546 55.815296 55.945116 56.066018 56.177827 56.280563 56.374080 56.458401 56.533411 56.599131 56.655476 56.702462 56.740031 56.768195 56.786919 56.796209 56.796056 56.786458 56.767429 56.738962 56.701092 56.653808 56.597171 56.531163 56.455872 56.371276 56.277493 56.174501 56.062445 55.941308 55.811267 55.672309 55.524646 55.368273 55.203440 55.030151 54.848694 54.659087 54.461657 54.256436 54.043790 53.823766 53.596770 53.362864 53.122490 52.875724 52.623043 52.364536 52.100708 51.831659 51.557921 51.279598 50.997243 50.710964 50.421325 50.128433 49.832861 49.534710 49.234553 48.932480 48.629058 48.324365 48.018955 47.712888 47.406702 47.100434 46.794601 46.489216 46.184768 45.881248 45.579113 45.278326 44.979313 44.682011 44.386807 44.093613 43.802780 43.514195 43.228167 42.944561 42.663648 42.385269 42.109655 41.836629 41.566382 41.298719 41.033793 40.771394 40.511636 40.254301 39.999462 39.746894 39.496635 39.248455 39.002357 38.758109 38.515682 38.274844 38.035537 37.797533 37.560745 37.324954 37.090043 36.855806 36.622104 36.388740 36.155556
36.533333 36.798643 37.064141 37.329997 37.596415 37.863542 38.131597 38.400699 38.671079 38.942829 39.216185 39.491208 39.768141 40.047008 40.328054 40.611267 40.896889 41.184872 41.475451 41.768537 42.064357 42.362780 42.664020 42.967905 43.274632 43.583985 43.896142 44.210845 44.528249 44.848051 45.170382 45.494897 45.821701 46.150403 46.481083 46.813309 47.147131 47.482079 47.818174 48.154910 48.492280 48.829745 49.167272 49.504295 49.840755 50.176062 50.510138 50.842377 51.172680 51.500432 51.825522 52.147330 52.465736 52.780125 53.090373 53.395876 53.696511 53.991692 54.281301 54.564778 54.842014 55.112480 55.376080 55.632320 55.881121 56.122027 56.354975 56.579552 56.795714 57.003088 57.201649 57.391067 57.571332 57.742158 57.903546 58.055251 58.197287 58.329446 58.451748 58.564024 58.666297 58.758430 58.840449 58.912247 58.973848 59.025174 59.066243 59.097006 59.117474 59.127623 59.127456 59.116976 59.096177 59.065086 59.023691 58.972044 58.910126 58.838017 58.755693 58.663264 58.560703 58.448150 58.325580 58.193168 58.050892 57.898963 57.737368 57.566354 57.385921 57.196358 56.997676 56.790207 56.573980 56.349369 56.116419 55.875550 55.626823 55.370700 55.107260 54.837004 54.560027 54.276867 53.987630 53.692885 53.392751 53.087819 52.778214 52.464547 52.146944 51.826027 51.501917 51.175243 50.846115 50.515160 50.182474 49.848673 49.513838 49.178567 48.842919 48.507470 48.172254 47.837819 47.504173 47.171832 46.840775 46.511482 46.183903 45.858480 45.535134 45.214265 44.895765 44.579993 44.266815 43.956546 43.649025 43.344524 43.042860 42.744261 42.448525 42.155835 41.865971 41.579076 41.294916 41.013591 40.734857 40.458773 40.185089 39.913827 39.644731 39.377786 39.112737 38.849535 38.587928 38.327833 38.069006 37.811333 37.554580 37.298607 37.043192 36.788169 36.533333
36.911111 37.199087 37.487258 37.775840 38.065007 38.354990 38.645935 38.938088 39.231566 39.526625 39.823348 40.121997 40.422622 40.725487 41.030603 41.338235 41.648353 41.961216 42.276754 42.595218 42.916491 43.240813 43.568023 43.898344 44.231569 44.567901 44.907085 45.249302 45.594251 45.942085 46.292455 46.645488 47.000788 47.358450 47.718032 48.079600 48.442667 48.807267 49.172871 49.539483 49.906536 50.274001 50.641280 51.008315 51.374479 51.739690 52.103298 52.465198 52.824726 53.181759 53.535626 53.886192 54.232784 54.575262 54.912961 55.245740 55.572949 55.894453 56.209625 56.518338 56.819997 57.114489 57.401256 57.680199 57.950804 58.212992 58.466291 58.710643 58.945624 59.171195 59.386981 59.592962 59.788807 59.974515 60.149801 60.314677 60.468901 60.612495 60.745259 60.867219 60.978215 61.078274 61.167270 61.245231 61.312062 61.367786 61.412338 61.445735 61.467938 61.478956 61.478778 61.467403 61.444845 61.411096 61.366195 61.310125 61.242954 61.164659 61.075336 60.974958 60.863654 60.741395 60.608346 60.464480 60.309999 60.144883 59.969375 59.783465 59.587440 59.381304 59.165390 58.939717 58.704667 58.460279 58.206982 57.944834 57.674312 57.395495 57.108905 56.814640 56.513265 56.204894 55.890128 55.569096 55.242431 54.910270 54.573270 54.231574 53.885854 53.536253 53.183451 52.827583 52.469332 52.108820 51.746722 51.383142 51.018742 50.653602 50.288363 49.923080 49.558365 49.194245 48.831299 48.469522 48.109456 47.751065 47.394848 47.040738 46.689191 46.340107 45.993896 45.650429 45.310067 44.972653 44.638501 44.307427 43.979698 43.655106 43.333871 43.015763 42.700956 42.389204 42.080634 41.774989 41.472350 41.172449 40.875327 40.580708 40.288594 39.998706 39.711007 39.425220 39.141272 38.858891 38.577970 38.298246 38.019581 37.741725 37.464511 37.187703 36.911111
37.288889 37.599648 37.910632 38.222041 38.534118 38.847038 39.161061 39.476330 39.793119 40.111538 40.431868 40.754183 41.078769 41.405662 41.735149 42.067223 42.402166 42.739930 43.080789 43.424647 43.771768 44.122008 44.475615 44.832395 45.192578 45.555918 45.922622 46.292394 46.665412 47.041329 47.420296 47.801912 48.186295 48.572996 48.962099 49.353104 49.746062 50.140426 50.536210 50.932825 51.330252 51.727860 52.125599 52.522803 52.919392 53.314673 53.708538 54.100274 54.489751 54.876244 55.259605 55.639105 56.014587 56.385325 56.751158 57.111374 57.465813 57.813786 58.155141 58.489219 58.815882 59.134508 59.444977 59.746710 60.039608 60.323140 60.597229 60.861396 61.115587 61.359374 61.592726 61.815268 62.026988 62.227562 62.416996 62.595014 62.761635 62.916628 63.060023 63.191630 63.311482 63.419430 63.515507 63.599598 63.671733 63.731830 63.779913 63.815927 63.839888 63.851771 63.851581 63.839318 63.814978 63.778588 63.730133 63.669668 63.597169 63.512722 63.416297 63.308010 63.187828 63.055904 62.912204 62.756921 62.590026 62.411753 62.222082 62.021294 61.809383 61.586677 61.353188 61.109295 60.855032 60.590829 60.316742 60.033256 59.740447 59.438854 59.128575 58.810196 58.483839 58.150132 57.809214 57.461751 57.107898 56.748350 56.383270 56.013376 55.638833 55.260374 54.878158 54.492924 54.104820 53.714582 53.322341 52.928821 52.534130 52.138972 51.743428 51.348175 50.953264 50.559338 50.166414 49.775097 49.385369 48.997792 48.612312 48.229445 47.849101 47.471747 47.097260 46.726054 46.357976 45.993388 45.632105 45.274439 44.920177 44.569579 44.222410 43.878876 43.538723 43.202109 42.868761 42.538788 42.211907 41.888178 41.567310 41.249320 40.933909 40.621054 40.310455 40.002049 39.695539 39.390824 39.087615 38.785777 38.485031 38.185210 37.886052 37.587359 37.288889
37.666667 38.000345 38.334255 38.668648 39.003729 39.339771 39.676946 40.015543 40.355702 40.697721 41.041703 41.387954 41.736537 42.087760 42.441642 42.798492 43.158281 43.521312 43.887509 44.257164 44.630150 45.006745 45.386770 45.770481 46.157649 46.548506 46.942766 47.340635 47.741771 48.146350 48.553974 48.964786 49.378332 49.794719 50.213438 50.634558 51.057520 51.482355 51.908451 52.335802 52.763752 53.192257 53.620621 54.048765 54.475957 54.902088 55.326401 55.748756 56.168380 56.585112 56.998166 57.407370 57.811936 58.211684 58.605837 58.994212 59.376053 59.751183 60.118876 60.478967 60.830766 61.174127 61.508406 61.833480 62.148752 62.454126 62.749062 63.033486 63.306917 63.569309 63.820235 64.059674 64.287257 64.502984 64.706539 64.897938 65.076918 65.243507 65.397489 65.538900 65.667564 65.783523 65.886640 65.976952 66.054357 66.118890 66.170479 66.209147 66.234855 66.247615 66.247414 66.234251 66.208142 66.169074 66.117091 66.052168 65.974377 65.883688 65.780202 65.663883 65.534870 65.393122 65.238819 65.071922 64.892652 64.700981 64.497178 64.281224 64.053440 63.813826 63.562757 63.300254 63.026749 62.742287 62.447358 62.142034 61.826860 61.501937 61.167865 60.824768 60.473300 60.113606 59.746384 59.371800 58.990590 58.602930 58.209586 57.810742 57.407184 56.999095 56.587271 56.171886 55.753738 55.332985 54.910417 54.486170 54.061015 53.635062 53.209055 52.783071 52.357822 51.933350 51.510325 51.088754 50.669260 50.251811 49.836982 49.424702 49.015493 48.609247 48.206432 47.806901 47.411069 47.018755 46.630316 46.245541 45.864731 45.487647 45.114534 44.745130 44.379626 44.017739 43.659608 43.304932 42.953801 42.605903 42.261278 41.919606 41.580880 41.244779 40.911252 40.579977 40.250863 39.923595 39.598041 39.273897 38.950995 38.629045 38.307849 37.987132 37.666667