<?xml version="1.0"?>
<VTKFile type="ImageData" version="0.1" byte_order="LittleEndian">
  <ImageData WholeExtent="0 180 0 180 0 0" Origin="0.0 0.0 0.0" Spacing="0.05 0.05 1">
    <Piece Extent="0 180 0 180 0 0">
      <PointData Scalars="Temperature">
        <DataArray type="Float32" Name="Temperature" format="ascii">
32.000000 32.000000 32.000000 32.000000 32.000000 32.000000 32.000000 32.000000 32.000000 32.000000 32.000000 32.000000 32.000000 32.000000 32.000000 32.000000 32.000000 32.000000 32.000000 32.000000 32.000000 32.000000 32.000000 32.000000 32.000000 32.000000 32.000000 32.000000 32.000000 32.000000 32.000000 32.000000 32.000000 32.000000 32.000000 32.000000 32.000000 32.000000 32.000000 32.000000 32.000000 32.000000 32.000000 32.000000 32.000000 32.000000 32.000000 32.000000 32.000000 32.000000 32.000000 32.000000 32.000000 32.000000 32.000000 32.000000 32.000000 32.000000 32.000000 32.000000 32.000000 32.000000 32.000000 32.000000 32.000000 32.000000 32.000000 32.000000 32.000000 32.000000 32.000000 32.000000 32.000000 32.000000 32.000000 32.000000 32.000000 32.000000 32.000000 32.000000 32.000000 32.000000 32.000000 32.000000 32.000000 32.000000 32.000000 32.000000 32.000000 32.000000 32.000000 32.000000 32.000000 32.000000 32.000000 32.000000 32.000000 32.000000 32.000000 32.000000 32.000000 32.000000 32.000000 32.000000 32.000000 32.000000 32.000000 32.000000 32.000000 32.000000 32.000000 32.000000 32.000000 32.000000 32.000000 32.000000 32.000000 32.000000 32.000000 32.000000 32.000000 32.000000 32.000000 32.000000 32.000000 32.000000 32.000000 32.000000 32.000000 32.000000 32.000000 32.000000 32.000000 32.000000 32.000000 32.000000 32.000000 32.000000 32.000000 32.000000 32.000000 32.000000 32.000000 32.000000 32.000000 32.000000 32.000000 32.000000 32.000000 32.000000 32.000000 32.000000 32.000000 32.000000 32.000000 32.000000 32.000000 32.000000 32.000000 32.000000 32.000000 32.000000 32.000000 32.000000 32.000000 32.000000 32.000000 32.000000 32.000000 32.000000 32.000000 32.000000 32.000000 32.000000 32.000000 32.000000 32.000000 32.000000 32.000000 32.000000 32.000000
32.377778 32.389344 32.400935 32.412579 32.424294 32.436113 32.448052 32.460145 32.472402 32.484861 32.497528 32.510442 32.523604 32.537055 32.550790 32.564851 32.579228 32.593965 32.609045 32.624512 32.640344 32.656585 32.673207 32.690254 32.707690 32.725561 32.743824 32.762523 32.781611 32.801129 32.821025 32.841338 32.862010 32.883079 32.904481 32.926252 32.948323 32.970729 32.993395 33.016353 33.039526 33.062943 33.086523 33.110292 33.134167 33.158171 33.182221 33.206337 33.230433 33.254528 33.278535 33.302474 33.326255 33.349897 33.373313 33.396520 33.419431 33.442064 33.464335 33.486259 33.507757 33.528845 33.549445 33.569573 33.589157 33.608212 33.626671 33.644549 33.661783 33.678389 33.694310 33.709560 33.724089 33.737909 33.750976 33.763303 33.774851 33.785630 33.795609 33.804797 33.813165 33.820725 33.827452 33.833354 33.838414 33.842638 33.846013 33.848544 33.850223 33.851051 33.851027 33.850151 33.848424 33.845845 33.842421 33.838147 33.833038 33.827085 33.820308 33.812698 33.804277 33.795037 33.785006 33.774172 33.762570 33.750187 33.737064 33.723186 33.708600 33.693291 33.677311 33.660644 33.643349 33.625410 33.606889 33.587771 33.568125 33.547934 33.527271 33.506121 33.484561 33.462575 33.440243 33.417550 33.394580 33.371317 33.347845 33.324150 33.300317 33.276331 33.252279 33.228142 33.204009 33.179860 33.155782 33.131755 33.107863 33.084083 33.060499 33.037086 33.013924 32.990986 32.968348 32.945981 32.923958 32.902247 32.880916 32.859930 32.839355 32.819152 32.799380 32.780000 32.761067 32.742538 32.724462 32.706797 32.689583 32.672779 32.656419 32.640459 32.624930 32.609787 32.595054 32.580686 32.566701 32.553055 32.539761 32.526775 32.514103 32.501703 32.489577 32.477684 32.466020 32.454546 32.443254 32.432106 32.421090 32.410171 32.399332 32.388541 32.377778
32.755556 32.778708 32.801912 32.825214 32.848672 32.872322 32.896230 32.920424 32.944974 32.969898 32.995271 33.021102 33.047470 33.074372 33.101890 33.130011 33.158819 33.188288 33.218506 33.249435 33.281162 33.313637 33.346949 33.381034 33.415980 33.451712 33.488315 33.525704 33.563961 33.602987 33.642863 33.683479 33.724912 33.767040 33.809936 33.853469 33.897707 33.942510 33.987940 34.033849 34.080294 34.127120 34.174381 34.221912 34.269764 34.317767 34.365968 34.414195 34.462488 34.510673 34.558788 34.606659 34.654321 34.701600 34.748528 34.794935 34.840851 34.886109 34.930740 34.974582 35.017663 35.059830 35.101110 35.141357 35.180600 35.218701 35.255688 35.291433 35.325965 35.359167 35.391066 35.421555 35.450663 35.478293 35.504472 35.529116 35.552250 35.573800 35.593789 35.612156 35.628921 35.644032 35.657507 35.669306 35.679442 35.687886 35.694647 35.699705 35.703068 35.704724 35.704676 35.702924 35.699465 35.694309 35.687451 35.678909 35.668674 35.656776 35.643199 35.627986 35.611118 35.592647 35.572551 35.550893 35.527650 35.502895 35.476603 35.448859 35.419635 35.389028 35.357010 35.323689 35.289035 35.253167 35.216055 35.177830 35.138462 35.098090 35.056684 35.014392 34.971186 34.927222 34.882469 34.837091 34.791057 34.744536 34.697497 34.650112 34.602348 34.554381 34.506176 34.457908 34.409541 34.361249 34.312991 34.264942 34.217056 34.169503 34.122235 34.075416 34.028993 33.983124 33.937751 33.893026 33.848885 33.805471 33.762717 33.720756 33.679516 33.639120 33.599491 33.560743 33.522795 33.485748 33.449519 33.414197 33.379698 33.346098 33.313310 33.281400 33.250278 33.219999 33.190473 33.161743 33.133719 33.106431 33.079793 33.053822 33.028433 33.003633 32.979340 32.955551 32.932187 32.909233 32.886616 32.864312 32.842251 32.820401 32.798699 32.777102 32.755556
33.133333 33.168113 33.202965 33.237974 33.273201 33.308740 33.344638 33.380998 33.417855 33.455318 33.493407 33.532238 33.571815 33.612260 33.653560 33.695842 33.739075 33.783389 33.828736 33.875247 33.922856 33.971696 34.021682 34.072945 34.125383 34.179125 34.234051 34.290286 34.347693 34.406393 34.466231 34.527323 34.589497 34.652865 34.717237 34.782719 34.849106 34.916498 34.984676 35.053732 35.123436 35.193871 35.264799 35.336295 35.408112 35.480318 35.552659 35.625199 35.697679 35.770156 35.842369 35.914372 35.985903 36.057013 36.127442 36.197238 36.266146 36.334213 36.401190 36.467123 36.531772 36.595182 36.657126 36.717647 36.776531 36.833820 36.889316 36.943061 36.994871 37.044788 37.092643 37.138480 37.182146 37.223681 37.262952 37.299996 37.334696 37.367087 37.397070 37.424675 37.449819 37.472531 37.492741 37.510473 37.525675 37.538365 37.548504 37.556107 37.561149 37.563638 37.563566 37.560933 37.555746 37.547998 37.537713 37.524876 37.509527 37.491645 37.471284 37.448419 37.423120 37.395357 37.365216 37.332662 37.297799 37.260588 37.221149 37.179442 37.135603 37.089590 37.041556 36.991458 36.939467 36.885537 36.829856 36.772379 36.713308 36.652599 36.590467 36.526869 36.462033 36.395916 36.328756 36.260509 36.191425 36.121457 36.050863 35.979593 35.907910 35.835762 35.763415 35.690814 35.618223 35.545584 35.473159 35.400884 35.329017 35.257488 35.186549 35.116123 35.046454 34.977457 34.909366 34.842090 34.775849 34.710547 34.646389 34.583271 34.521387 34.460624 34.401159 34.342875 34.285933 34.230209 34.175847 34.122721 34.070954 34.020419 33.971220 33.923227 33.876528 33.830991 33.786686 33.743479 33.701426 33.660392 33.620415 33.581365 33.543260 33.505975 33.469512 33.433750 33.398676 33.364175 33.330218 33.296697 33.263571 33.230739 33.198145 33.165699 33.133333
33.511111 33.557574 33.604141 33.650903 33.697979 33.745441 33.793422 33.841974 33.891243 33.941262 33.992184 34.044024 34.096942 34.150932 34.206159 34.262597 34.320414 34.379561 34.440210 34.502287 34.565967 34.631150 34.698012 34.766429 34.836575 34.908301 34.981777 35.056831 35.133629 35.211975 35.292028 35.373569 35.456749 35.541329 35.627452 35.714857 35.803677 35.893634 35.984851 36.077032 36.170291 36.264316 36.359213 36.454656 36.550741 36.647133 36.743920 36.840758 36.937728 37.034481 37.131093 37.227212 37.322908 37.417833 37.512051 37.605219 37.697398 37.788254 37.877845 37.965847 38.052318 38.136949 38.219795 38.300564 38.379312 38.455762 38.529973 38.601688 38.670963 38.737564 38.801548 38.862700 38.921076 38.976485 39.028980 39.078394 39.124776 39.167980 39.208053 39.244871 39.278476 39.308765 39.335774 39.359421 39.379736 39.396658 39.410208 39.420346 39.427084 39.430403 39.430307 39.426796 39.419865 39.409534 39.395790 39.378673 39.358161 39.334314 39.307104 39.276612 39.242800 39.205773 39.165488 39.122068 39.075468 39.025833 38.973112 38.917475 38.858868 38.797481 38.733260 38.666419 38.596900 38.524940 38.450482 38.373782 38.294785 38.213766 38.130668 38.045788 37.959068 37.870819 37.780984 37.689889 37.597476 37.504079 37.409640 37.314503 37.218603 37.122292 37.025502 36.928584 36.831464 36.734495 36.637596 36.541113 36.444960 36.349475 36.254563 36.160552 36.067338 35.975238 35.884136 35.794335 35.705710 35.618546 35.532708 35.448463 35.365669 35.284569 35.205013 35.127225 35.051045 34.976676 34.903951 34.833049 34.763798 34.696354 34.630541 34.566490 34.504024 34.443250 34.383989 34.326324 34.270078 34.215310 34.161846 34.109721 34.058766 34.008993 33.960239 33.912495 33.865603 33.819536 33.774144 33.729380 33.685105 33.641253 33.597698 33.554355 33.511111
33.888889 33.947117 34.005467 34.064080 34.123058 34.182558 34.242660 34.303537 34.365244 34.427968 34.491739 34.556754 34.623019 34.690738 34.759889 34.830685 34.903075 34.977276 35.053209 35.131092 35.210817 35.292603 35.376312 35.462160 35.549980 35.639985 35.731976 35.826163 35.922315 36.020635 36.120866 36.223199 36.327350 36.433501 36.541340 36.651039 36.762260 36.875164 36.989390 37.105087 37.221874 37.339888 37.458729 37.578522 37.698853 37.819838 37.941049 38.062591 38.184031 38.305465 38.426454 38.547088 38.666928 38.786057 38.904042 39.020960 39.136386 39.250395 39.362573 39.472992 39.581256 39.687435 39.791152 39.892476 39.991052 40.086950 40.179837 40.269784 40.356485 40.440009 40.520078 40.596760 40.669803 40.739276 40.804954 40.866904 40.924927 40.979087 41.029213 41.075363 41.117395 41.155358 41.189137 41.218774 41.244180 41.265387 41.282332 41.295036 41.303463 41.307623 41.307503 41.303104 41.294437 41.281491 41.264304 41.242853 41.217201 41.187316 41.153285 41.115068 41.072779 41.026368 40.975977 40.921549 40.863253 40.801027 40.735068 40.665310 40.591978 40.515002 40.434638 40.350813 40.263809 40.173555 40.080359 39.984150 39.885262 39.783624 39.679595 39.573103 39.464528 39.353801 39.241319 39.127011 39.011292 38.894089 38.775828 38.656433 38.536339 38.415466 38.294253 38.172614 38.050988 37.929281 37.807931 37.686833 37.566418 37.446571 37.327713 37.209717 37.092988 36.977391 36.863311 36.750601 36.639626 36.530227 36.422748 36.317016 36.213350 36.111567 36.011961 35.914337 35.818962 35.725632 35.634583 35.545608 35.458911 35.374278 35.291886 35.211515 35.133313 35.057058 34.982867 34.910518 34.840099 34.771390 34.704450 34.639063 34.575260 34.512829 34.451776 34.391897 34.333170 34.275401 34.218545 34.162419 34.106954 34.051981 33.997407 33.943081 33.888889
34.266667 34.336753 34.406998 34.477536 34.548548 34.620143 34.692520 34.765761 34.840082 34.915536 34.992353 35.070556 35.150386 35.231835 35.315152 35.400296 35.487524 35.576759 35.668264 35.761925 35.858006 35.956361 36.057250 36.160490 36.266341 36.374582 36.485467 36.598740 36.714647 36.832896 36.953724 37.076805 37.202364 37.330042 37.460052 37.592003 37.726095 37.861908 37.999627 38.138805 38.279614 38.421584 38.564870 38.708985 38.854069 38.999618 39.145762 39.291983 39.438400 39.584489 39.730358 39.875482 40.019958 40.163266 40.305498 40.446138 40.585274 40.722405 40.857614 40.990416 41.120895 41.248585 41.373569 41.495407 41.614182 41.729481 41.841387 41.949517 42.053956 42.154351 42.250787 42.342945 42.430908 42.514391 42.593475 42.667907 42.737764 42.802829 42.863172 42.918608 42.969202 43.014799 43.055456 43.091050 43.121626 43.147094 43.167487 43.182744 43.192885 43.197881 43.197738 43.192455 43.182026 43.166481 43.145798 43.120037 43.089166 43.053275 43.012317 42.966416 42.915514 42.859765 42.799105 42.733719 42.663535 42.588771 42.509351 42.425527 42.337218 42.244708 42.147917 42.047161 41.942359 41.833861 41.721585 41.605914 41.486764 41.364551 41.239191 41.111127 40.980276 40.847104 40.711530 40.574041 40.434553 40.293571 40.151008 40.007382 39.862601 39.717191 39.571054 39.424719 39.278079 39.131662 38.985350 38.839666 38.694481 38.550305 38.406996 38.265050 38.124311 37.985255 37.847712 37.712134 37.578338 37.446749 37.317170 37.189998 37.065021 36.942605 36.822526 36.705117 36.590143 36.477902 36.368149 36.261149 36.156646 36.054870 35.955561 35.858912 35.764659 35.672958 35.583545 35.496540 35.411679 35.329049 35.248387 35.169747 35.092872 35.017782 34.944229 34.872200 34.801458 34.731960 34.663481 34.595949 34.529156 34.463000 34.397292 34.331904 34.266667
34.644444 34.726511 34.808750 34.891359 34.974483 35.058343 35.143053 35.228854 35.315828 35.404234 35.494119 35.585758 35.679161 35.774614 35.872090 35.971885 36.073931 36.178532 36.285578 36.395376 36.507776 36.623084 36.741109 36.862155 36.985987 37.112904 37.242629 37.375455 37.511061 37.649729 37.791100 37.935442 38.082356 38.232096 38.384227 38.538985 38.695900 38.855194 39.016361 39.179607 39.344397 39.510920 39.678617 39.847657 40.017461 40.188185 40.359231 40.530740 40.702105 40.873455 41.044175 41.214384 41.383469 41.551538 41.717986 41.882914 42.045727 42.206524 42.364727 42.520432 42.673083 42.822775 42.968980 43.111791 43.250712 43.385839 43.516706 43.643411 43.765527 43.883149 43.995889 44.103843 44.206661 44.304438 44.396861 44.484024 44.565653 44.641835 44.712336 44.777236 44.836339 44.889714 44.937204 44.978866 45.014579 45.044386 45.068203 45.086059 45.097904 45.103751 45.103584 45.097403 45.085225 45.067033 45.042878 45.012730 44.976675 44.934666 44.886827 44.833097 44.773635 44.708371 44.637501 44.560944 44.478935 44.391387 44.298572 44.200397 44.097177 43.988813 43.875659 43.757617 43.635078 43.507945 43.376646 43.241085 43.101728 42.958478 42.811837 42.661708 42.508623 42.352488 42.193860 42.032644 41.869422 41.704095 41.537262 41.368821 41.199383 41.028839 40.857807 40.686170 40.514546 40.342808 40.171568 40.000687 39.830767 39.661654 39.493935 39.327439 39.162733 38.999629 38.838670 38.679651 38.523084 38.368749 38.217125 38.067975 37.921745 37.778179 37.637687 37.500000 37.365487 37.233867 37.105468 36.979999 36.857748 36.738412 36.622239 36.508921 36.398663 36.291155 36.186558 36.084562 35.985289 35.888429 35.794063 35.701889 35.611948 35.523945 35.437882 35.353476 35.270694 35.189265 35.109120 35.030007 34.951823 34.874335 34.797409 34.720832 34.644444
35.022222 35.116397 35.210784 35.305567 35.400985 35.497189 35.594443 35.692860 35.792728 35.894121 35.997347 36.102438 36.209716 36.319173 36.431144 36.545573 36.662806 36.782742 36.905730 37.031624 37.160775 37.292989 37.428614 37.567409 37.709718 37.855251 38.004343 38.156658 38.312520 38.471543 38.634041 38.799581 38.968461 39.140203 39.315088 39.492597 39.672991 39.855712 40.041002 40.228268 40.417729 40.608763 40.801569 40.995497 41.190729 41.386592 41.583251 41.780016 41.977037 42.173616 42.369889 42.565152 42.759533 42.952332 43.143665 43.332845 43.519983 43.704407 43.886224 44.064786 44.240198 44.411841 44.579819 44.743547 44.903131 45.058021 45.208326 45.353537 45.493764 45.628540 45.757977 45.881651 45.999674 46.111667 46.217738 46.317556 46.411222 46.498450 46.579335 46.653634 46.721432 46.782529 46.836998 46.884682 46.925640 46.959753 46.987066 47.007501 47.021084 47.027776 47.027586 47.020514 47.006550 46.985733 46.958035 46.923534 46.882186 46.834107 46.779238 46.717738 46.649531 46.574817 46.493512 46.405857 46.311757 46.211499 46.104981 45.992534 45.874052 45.749911 45.620002 45.484748 45.344037 45.198338 45.047540 44.892154 44.732072 44.567845 44.399367 44.227226 44.051318 43.872265 43.689963 43.505062 43.317457 43.127821 42.936047 42.742825 42.548040 42.352396 42.155767 41.958861 41.761544 41.564519 41.367639 41.171599 40.976234 40.782226 40.589393 40.398394 40.209028 40.021929 39.836876 39.654473 39.474477 39.297456 39.123151 38.952089 38.783991 38.619344 38.457851 38.299956 38.145345 37.994415 37.846841 37.702972 37.562470 37.425640 37.292133 37.162206 37.035506 36.912240 36.792054 36.675108 36.561048 36.449988 36.341577 36.235884 36.132566 36.031648 35.932797 35.835995 35.740924 35.647525 35.555496 35.464741 35.374977 35.286072 35.197767 35.109894 35.022222
35.400000 35.506442 35.613108 35.720254 35.828069 35.936839 36.046712 36.158002 36.270815 36.385488 36.502081 36.620951 36.742113 36.865937 36.992390 37.121855 37.254246 37.389954 37.528844 37.671308 37.817157 37.966786 38.119951 38.277041 38.437760 38.602490 38.770879 38.943299 39.119344 39.299372 39.482925 39.670343 39.861118 40.055571 40.253144 40.454140 40.657951 40.864859 41.074216 41.286279 41.500362 41.716699 41.934571 42.154191 42.374811 42.596623 42.818858 43.041689 43.264334 43.486947 43.708738 43.929850 44.149493 44.367796 44.583980 44.798165 45.009587 45.218361 45.423746 45.625855 45.823975 46.018220 46.207912 46.393166 46.573344 46.748563 46.918231 47.082466 47.240723 47.393123 47.539170 47.678986 47.812125 47.938708 48.058339 48.171137 48.276756 48.375308 48.466497 48.550427 48.626849 48.695855 48.757245 48.811095 48.857251 48.895772 48.926550 48.949624 48.964929 48.972486 48.972274 48.964290 48.948558 48.925055 48.893846 48.854890 48.808296 48.754004 48.692167 48.622708 48.545827 48.461432 48.369771 48.270740 48.164635 48.051343 47.931210 47.804118 47.670463 47.530123 47.383546 47.230608 47.071808 46.907024 46.736804 46.561027 46.380290 46.194475 46.004222 45.809417 45.610741 45.408079 45.202150 44.992839 44.780893 44.566196 44.349518 44.130738 43.910642 43.689101 43.466911 43.243930 43.020955 42.797832 42.575350 42.353338 42.132572 41.912862 41.694963 41.478664 41.264693 41.052818 40.843733 40.637182 40.433824 40.233379 40.036464 39.842777 39.652889 39.466476 39.284062 39.105305 38.930676 38.759816 38.593145 38.430289 38.271615 38.116737 37.965969 37.818915 37.675837 37.536334 37.400613 37.268273 37.139468 37.013800 36.891370 36.771787 36.655102 36.540934 36.429285 36.319787 36.212396 36.106762 36.002794 35.900165 35.798742 35.698221 35.598430 35.499093 35.400000
35.777778 35.896648 36.015787 36.135425 36.255867 36.377301 36.500062 36.624293 36.750357 36.878350 37.008658 37.141324 37.276755 37.414942 37.556305 37.700780 37.848798 38.000239 38.155539 38.314519 38.477618 38.644597 38.815892 38.991206 39.170966 39.354815 39.543171 39.735615 39.932552 40.133503 40.338855 40.548072 40.761521 40.978610 41.199682 41.424091 41.652159 41.883189 42.117476 42.354278 42.593864 42.835454 43.079290 43.324557 43.571472 43.819193 44.067916 44.316778 44.565953 44.814566 45.062776 45.309702 45.555489 45.799263 46.041155 46.280306 46.516840 46.749920 46.979666 47.205269 47.426851 47.643637 47.855749 48.062458 48.263889 48.459358 48.648994 48.832166 49.009005 49.178936 49.342091 49.497950 49.646649 49.787722 49.921302 50.046981 50.164889 50.274671 50.376448 50.469922 50.555202 50.632042 50.700536 50.760491 50.811982 50.854866 50.889198 50.914884 50.931957 50.940371 50.940135 50.931251 50.913705 50.887544 50.852735 50.809370 50.757394 50.696950 50.627960 50.550618 50.464831 50.370841 50.268541 50.158229 50.039783 49.913556 49.779420 49.637784 49.488513 49.332073 49.168329 48.997803 48.820361 48.636581 48.446331 48.250245 48.048194 47.840863 47.628127 47.410720 47.188521 46.962306 46.731954 46.498280 46.261162 46.021445 45.779003 45.534702 45.288412 45.041011 44.792358 44.543338 44.293796 44.044613 43.795615 43.547675 43.300597 43.055235 42.811369 42.569827 42.330365 42.093776 41.859792 41.629165 41.401602 41.177811 40.957471 40.741241 40.528778 40.320688 40.116603 39.917074 39.721713 39.531013 39.344569 39.162815 38.985331 38.812490 38.643861 38.479760 38.319745 38.164073 38.012299 37.864621 37.720595 37.580359 37.443475 37.310025 37.179578 37.052162 36.927360 36.805145 36.685118 36.567201 36.451017 36.336440 36.223118 36.110877 35.999396 35.888460 35.777778
36.155556 36.287049 36.418819 36.551183 36.684375 36.818746 36.954484 37.091973 37.231347 37.373020 37.517072 37.663939 37.813644 37.966642 38.122897 38.282877 38.446484 38.614197 38.785853 38.961934 39.142215 39.327175 39.516523 39.710735 39.909452 40.113140 40.321373 40.534604 40.752342 40.975020 41.202082 41.433942 41.669979 41.910582 42.155072 42.403810 42.656060 42.912154 43.171304 43.433814 43.698846 43.966676 44.236425 44.508340 44.781507 45.056147 45.331320 45.607222 45.882893 46.158510 46.433105 46.706835 46.978733 47.248942 47.516506 47.781560 48.043165 48.301450 48.555507 48.805462 49.050444 49.290579 49.525042 49.753962 49.976564 50.192981 50.402494 50.605243 50.800564 50.988604 51.168760 51.341181 51.505328 51.661348 51.808766 51.947725 52.077811 52.199163 52.311427 52.414729 52.508775 52.593677 52.669199 52.735434 52.792199 52.839570 52.877416 52.905787 52.924607 52.933901 52.933643 52.923833 52.904495 52.875604 52.837236 52.789339 52.732042 52.665271 52.589207 52.503755 52.409152 52.305285 52.192449 52.070516 51.939839 51.800279 51.652253 51.495614 51.330840 51.157782 50.976980 50.788286 50.592304 50.388887 50.178701 49.961605 49.738323 49.508719 49.273573 49.032755 48.787095 48.536467 48.281746 48.022807 47.760562 47.494885 47.226719 46.955929 46.683480 46.409228 46.134148 45.858084 45.582011 45.305756 45.030285 44.755404 44.482062 44.210041 43.940265 43.672487 43.407598 43.145323 42.886513 42.630863 42.379176 42.131119 41.887443 41.647786 41.412844 41.182226 40.956569 40.735457 40.519466 40.308157 40.102041 39.900662 39.704464 39.512978 39.326580 39.144792 38.967923 38.795488 38.627733 38.464168 38.304976 38.149669 37.998368 37.850592 37.706398 37.565321 37.427356 37.292055 37.159356 37.028832 36.900367 36.773558 36.648238 36.524035 36.400734 36.277994 36.155556
36.533333 36.677640 36.822274 36.967515 37.113732 37.261156 37.410192 37.561017 37.714070 37.869469 38.027681 38.188765 38.353208 38.521008 38.692669 38.868121 39.047882 39.231814 39.420440 39.613554 39.811680 40.014540 40.222655 40.435675 40.654111 40.877540 41.106462 41.340381 41.579777 41.824082 42.073757 42.328161 42.587731 42.851758 43.120648 43.393631 43.671080 43.952164 44.237226 44.525377 44.816928 45.110942 45.407696 45.706212 46.006736 46.308255 46.610987 46.913894 47.217169 47.519758 47.821833 48.122335 48.421419 48.718031 49.012314 49.303231 49.590916 49.874360 50.153694 50.427943 50.697240 50.960657 51.218327 51.469377 51.713946 51.951218 52.181340 52.403559 52.618029 52.824063 53.021819 53.210680 53.390806 53.561649 53.723369 53.875484 54.018150 54.150954 54.274040 54.387062 54.490151 54.583021 54.665787 54.738225 54.800427 54.852226 54.893692 54.924714 54.945334 54.955497 54.955217 54.944494 54.923312 54.891726 54.849693 54.797322 54.734543 54.661523 54.578168 54.484701 54.381007 54.267373 54.143663 54.010228 53.866920 53.714152 53.551771 53.380255 53.199446 53.009892 52.811434 52.604689 52.389499 52.166554 51.935698 51.697688 51.452377 51.200583 50.942168 50.678009 50.407973 50.132991 49.852934 49.568778 49.280396 48.988801 48.693861 48.396618 48.096933 47.795864 47.493260 47.190187 46.886474 46.583184 46.280127 45.978350 45.677636 45.379009 45.082225 44.788274 44.496880 44.208992 43.924302 43.643711 43.366877 43.094647 42.826646 42.563662 42.305289 42.052251 41.804113 41.561530 41.324043 41.092237 40.865630 40.644736 40.429054 40.219028 40.014139 39.814761 39.620365 39.431253 39.246892 39.067511 38.892579 38.722255 38.556011 38.393940 38.235525 38.080792 37.929239 37.780829 37.635080 37.491894 37.350816 37.211688 37.074086 36.937797 36.802432 36.667728 36.533333
36.911111 37.068459 37.226139 37.384531 37.543915 37.704712 37.867148 38.031681 38.198477 38.368026 38.540429 38.716205 38.895389 39.078519 39.265561 39.457068 39.652933 39.853721 40.059250 40.270088 40.485976 40.707481 40.934267 41.166894 41.404945 41.648969 41.898472 42.153982 42.414927 42.681814 42.953994 43.231946 43.514946 43.803443 44.096640 44.394954 44.697518 45.004715 45.315614 45.630561 45.948568 46.269944 46.593652 46.919965 47.247804 47.577408 47.907664 48.238785 48.569634 48.900395 49.229923 49.558381 49.884622 50.208794 50.529762 50.847664 51.161388 51.471067 51.775625 52.075193 52.368740 52.656402 52.937201 53.211279 53.477722 53.736678 53.987301 54.229749 54.463245 54.687957 54.903183 55.109094 55.305064 55.491266 55.667150 55.832886 55.987997 56.132648 56.266431 56.389501 56.501519 56.602621 56.692536 56.771379 56.838941 56.895313 56.940347 56.974105 56.996499 57.007559 57.007258 56.995593 56.972595 56.938229 56.892584 56.835596 56.767412 56.687942 56.597392 56.495646 56.382976 56.259246 56.124791 55.979458 55.823654 55.657214 55.480616 55.293687 55.096980 54.890321 54.674337 54.448857 54.214583 53.971350 53.719935 53.460180 53.192936 52.918053 52.636449 52.347984 52.053638 51.753278 51.447938 51.137488 50.823011 50.504375 50.182697 49.857843 49.530953 49.201881 48.871784 48.540497 48.209178 47.877643 47.547039 47.217155 46.889116 46.562684 46.238950 45.917642 45.599812 45.285152 44.974664 44.668002 44.366114 44.068617 43.776396 43.489032 43.207341 42.930873 42.660372 42.395356 42.136495 41.883279 41.636303 41.395033 41.159986 40.930610 40.707342 40.489619 40.277798 40.071307 39.870428 39.674583 39.483980 39.298044 39.116906 38.940001 38.767386 38.598511 38.433363 38.271409 38.112572 37.956342 37.802577 37.650797 37.500801 37.352142 37.204563 37.057656 36.911111
37.288889 37.459496 37.630489 37.802203 37.975071 38.149370 38.325576 38.503904 38.684867 38.868614 39.055690 39.246174 39.440635 39.639080 39.842097 40.049616 40.262241 40.479819 40.702963 40.931440 41.165862 41.405914 41.652201 41.904325 42.162880 42.427383 42.698410 42.975393 43.258888 43.548240 43.843978 44.145365 44.452899 44.765761 45.084415 45.407966 45.736838 46.070064 46.408030 46.749703 47.095426 47.444108 47.796053 48.150118 48.506570 48.864224 49.223312 49.582619 49.942344 50.301256 50.659527 51.015918 51.370583 51.722290 52.071176 52.416030 52.756982 53.092853 53.423771 53.748600 54.067472 54.379305 54.684238 54.981255 55.270502 55.551035 55.823012 56.085565 56.338862 56.582116 56.815503 57.038318 57.250744 57.452155 57.642737 57.821944 57.989957 58.146311 58.291176 58.424160 58.545421 58.654638 58.751949 58.837101 58.910207 58.971080 59.019802 59.056252 59.080480 59.092424 59.092101 59.079511 59.054636 59.017535 58.968158 58.906626 58.832855 58.747031 58.649040 58.539134 58.417174 58.283481 58.137897 57.980813 57.812056 57.632095 57.440746 57.238556 57.025339 56.801722 56.567520 56.323442 56.069309 55.805914 55.533085 55.251695 54.961586 54.663705 54.357906 54.045210 53.725479 53.399799 53.068040 52.731342 52.389579 52.043937 51.694287 51.341849 50.986485 50.629436 50.270551 49.911078 49.550846 49.191098 48.831636 48.473686 48.117019 47.762832 47.410859 47.062259 46.716727 46.375372 46.037850 45.705210 45.377069 45.054410 44.736810 44.425181 44.119061 43.819288 43.525362 43.238043 42.956799 42.682307 42.414007 42.152493 41.897182 41.648584 41.406096 41.170145 40.940116 40.716351 40.498229 40.286009 40.079069 39.877587 39.680947 39.489247 39.301883 39.118877 38.939641 38.764123 38.591760 38.422428 38.255593 38.091066 37.928345 37.767179 37.607106 37.447814 37.288889
37.666667 37.850788 38.035300 38.220644 38.407153 38.595318 38.785405 38.977950 39.173151 39.371578 39.573357 39.779089 39.988824 40.203186 40.422145 40.646342 40.875663 41.110761 41.351436 41.598344 41.851198 42.110651 42.376324 42.648863 42.927799 43.213759 43.506184 43.805680 44.111596 44.424511 44.743684 45.069660 45.401612 45.740047 46.084052 46.434095 46.789181 47.149737 47.514691 47.884425 48.257801 48.635155 49.015289 49.398495 49.783524 50.170630 50.558524 50.947420 51.336005 51.724462 52.111462 52.497163 52.880237 53.260822 53.637605 54.010714 54.378863 54.742175 55.099406 55.450683 55.794815 56.131935 56.460920 56.781911 57.093860 57.396923 57.690132 57.973658 58.246617 58.509192 58.760589 59.001000 59.229720 59.446947 59.652061 59.845262 60.026017 60.194516 60.350309 60.493575 60.623941 60.741568 60.846156 60.937843 61.016399 61.081931 61.134279 61.173515 61.199544 61.212403 61.212060 61.198513 61.171795 61.131866 61.078822 61.012588 60.933323 60.840921 60.735608 60.617247 60.486137 60.342116 60.185556 60.016278 59.834732 59.640726 59.434794 59.216736 58.987172 58.745903 58.493637 58.230181 57.956331 57.671905 57.377786 57.073807 56.760937 56.439021 56.109112 55.771069 55.426019 55.073831 54.715700 54.351503 53.982489 53.608536 53.230938 52.849568 52.465749 52.079344 51.691690 51.302632 50.913510 50.524140 50.135851 49.748429 49.363175 48.979839 48.599684 48.222419 47.849257 47.479865 47.115396 46.755472 46.401180 46.052096 45.709234 45.372125 45.041705 44.717463 44.400250 44.089520 43.786035 43.489216 43.199737 42.916989 42.641556 42.372806 42.111233 41.856187 41.608073 41.366229 41.130971 40.901633 40.678442 40.460735 40.248654 40.041543 39.839462 39.641769 39.448443 39.258866 39.072939 38.890070 38.710087 38.532433 38.356867 38.182869 38.010134 37.838189 37.666667