# vtk DataFile Version 3.0
Steady-state temperature (Jacobi)
ASCII
DATASET STRUCTURED_POINTS
DIMENSIONS 181 181 1
ORIGIN 0.0 0.0 0.0
SPACING 0.05 0.05 1.0
POINT_DATA 32761
SCALARS Temperature float 1
LOOKUP_TABLE default
32.000000 32.000000 32.000000 32.000000 32.000000 32.000000 32.000000 32.000000
32.000000 32.000000 32.000000 32.000000 32.000000 32.000000 32.000000 32.000000
32.000000 32.000000 32.000000 32.000000 32.000000 32.000000 32.000000 32.000000
32.000000 32.000000 32.000000 32.000000 32.000000 32.000000 32.000000 32.000000
32.000000 32.000000 32.000000 32.000000 32.000000 32.000000 32.000000 32.000000
32.000000 32.000000 32.000000 32.000000 32.000000 32.000000 32.000000 32.000000
32.000000 32.000000 32.000000 32.000000 32.000000 32.000000 32.000000 32.000000
32.000000 32.000000 32.000000 32.000000 32.000000 32.000000 32.000000 32.000000
32.000000 32.000000 32.000000 32.000000 32.000000 32.000000 32.000000 32.000000
32.000000 32.000000 32.000000 32.000000 32.000000 32.000000 32.000000 32.000000
32.000000 32.000000 32.000000 32.000000 32.000000 32.000000 32.000000 32.000000
32.000000 32.000000 32.000000 32.000000 32.000000 32.000000 32.000000 32.000000
32.000000 32.000000 32.000000 32.000000 32.000000 32.000000 32.000000 32.000000
32.000000 32.000000 32.000000 32.000000 32.000000 32.000000 32.000000 32.000000
32.000000 32.000000 32.000000 32.000000 32.000000 32.000000 32.000000 32.000000
32.000000 32.000000 32.000000 32.000000 32.000000 32.000000 32.000000 32.000000
32.000000 32.000000 32.000000 32.000000 32.000000 32.000000 32.000000 32.000000
32.000000 32.000000 32.000000 32.000000 32.000000 32.000000 32.000000 32.000000
32.000000 32.000000 32.000000 32.000000 32.000000 32.000000 32.000000 32.000000
32.000000 32.000000 32.000000 32.000000 32.000000 32.000000 32.000000 32.000000
32.000000 32.000000 32.000000 32.000000 32.000000 32.000000 32.000000 32.000000
32.000000 32.000000 32.000000 32.000000 32.000000 32.000000 32.000000 32.000000
32.000000 32.000000 32.000000 32.000000 32.000000
32.377778 32.405847 32.433924 32.462016 32.490128 32.518269 32.546445 32.574663
32.602929 32.631249 32.659627 32.688072 32.716585 32.745173 32.773836 32.802583
32.831410 32.860325 32.889324 32.918413 32.947586 32.976847 33.006189 33.035616
33.065117 33.094695 33.124337 33.154044 33.183801 33.213608 33.243447 33.273317
33.303197 33.333084 33.362956 33.392807 33.422614 33.452368 33.482045 33.511634
33.541109 33.570458 33.599653 33.628681 33.657511 33.686131 33.714509 33.742631
33.770464 33.797993 33.825187 33.852028 33.878486 33.904545 33.930172 33.955353
33.980056 34.004266 34.027954 34.051105 34.073692 34.095700 34.117104 34.137891
34.158037 34.177531 34.196351 34.214487 34.231920 34.248641 34.264633 34.279889
34.294393 34.308140 34.321118 34.333321 34.344738 34.355367 34.365198 34.374228
34.382451 34.389865 34.396464 34.402246 34.407208 34.411349 34.414666 34.417158
34.418825 34.419665 34.419679 34.418866 34.417227 34.414763 34.411474 34.407363
34.402432 34.396681 34.390116 34.382737 34.374551 34.365559 34.355768 34.345183
34.333811 34.321657 34.308731 34.295039 34.280592 34.265399 34.249473 34.232821
34.215463 34.197405 34.178668 34.159263 34.139210 34.118522 34.097223 34.075326
34.052856 34.029829 34.006271 33.982198 33.957639 33.932610 33.907142 33.881251
33.854969 33.828311 33.801311 33.773984 33.746362 33.718461 33.690313 33.661933
33.633353 33.604586 33.575663 33.546597 33.517416 33.488132 33.458773 33.429347
33.399881 33.370384 33.340877 33.311369 33.281880 33.252415 33.222992 33.193616
33.164303 33.135054 33.105883 33.076790 33.047788 33.018874 32.990058 32.961337
32.932718 32.904198 32.875780 32.847461 32.819243 32.791119 32.763091 32.735152
32.707302 32.679532 32.651841 32.624220 32.596667 32.569171 32.541729 32.514333
32.486975 32.459648 32.432345 32.405057 32.377778
32.755556 32.811699 32.867858 32.924045 32.980276 33.036562 33.092921 33.149361
33.205899 33.262543 33.319309 33.376201 33.433236 33.490416 33.547755 33.605251
33.662919 33.720753 33.778766 33.836948 33.895309 33.953837 34.012539 34.071399
34.130420 34.189582 34.248887 34.308309 34.367846 34.427469 34.487172 34.546922
34.606708 34.666493 34.726265 34.785980 34.845622 34.905145 34.964529 35.023722
35.082703 35.141418 35.199840 35.257912 35.315607 35.372864 35.429653 35.485914
35.541613 35.596689 35.651110 35.704810 35.757759 35.809893 35.861180 35.911557
35.960993 36.009429 36.056834 36.103151 36.148351 36.192380 36.235213 36.276798
36.317113 36.356112 36.393772 36.430053 36.464937 36.498386 36.530386 36.560903
36.589925 36.617424 36.643390 36.667800 36.690644 36.711904 36.731573 36.749636
36.766088 36.780916 36.794118 36.805684 36.815611 36.823893 36.830529 36.835514
36.838848 36.840529 36.840556 36.838930 36.835651 36.830723 36.824144 36.815921
36.806055 36.794553 36.781418 36.766659 36.750280 36.732295 36.712707 36.691533
36.668780 36.644468 36.618605 36.591216 36.562310 36.531917 36.500049 36.466739
36.432004 36.395880 36.358386 36.319565 36.279437 36.238050 36.195427 36.151619
36.106653 36.060583 36.013439 35.965277 35.916130 35.866056 35.815088 35.763289
35.710692 35.657359 35.603324 35.548652 35.493375 35.437555 35.381226 35.324450
35.267256 35.209706 35.151828 35.093679 35.035286 34.976703 34.917953 34.859089
34.800128 34.741120 34.682080 34.623052 34.564047 34.505107 34.446238 34.387477
34.328827 34.270321 34.211959 34.153766 34.095742 34.037908 33.980259 33.922812
33.865558 33.808513 33.751664 33.695021 33.638571 33.582321 33.526254 33.470373
33.414662 33.359120 33.303729 33.248484 33.193369 33.138375 33.083485 33.028688
32.973967 32.919310 32.864698 32.810119 32.755556
33.133333 33.217561 33.301810 33.386104 33.470461 33.554905 33.639453 33.724129
33.808947 33.893931 33.979091 34.064451 34.150015 34.235808 34.321829 34.408099
34.494615 34.581396 34.668430 34.755736 34.843296 34.931124 35.019197 35.107526
35.196081 35.284868 35.373851 35.463031 35.552365 35.641851 35.731438 35.821116
35.910832 36.000568 36.090264 36.179899 36.269404 36.358754 36.447874 36.536733
36.625252 36.713395 36.801077 36.888259 36.974852 37.060813 37.146049 37.230515
37.314117 37.396807 37.478489 37.559115 37.638590 37.716864 37.793843 37.869479
37.943681 38.016402 38.087553 38.157091 38.224932 38.291035 38.355321 38.417753
38.478258 38.536804 38.593323 38.647788 38.700138 38.750349 38.798369 38.844177
38.887727 38.929003 38.967965 39.004601 39.038878 39.070786 39.100298 39.127407
39.152090 39.174344 39.194151 39.211507 39.226401 39.238829 39.248785 39.256266
39.261267 39.263789 39.263830 39.261390 39.256471 39.249075 39.239205 39.226865
39.212063 39.194802 39.175095 39.152946 39.128373 39.101380 39.071990 39.040212
39.006072 38.969582 38.930774 38.889662 38.846287 38.800665 38.752842 38.702840
38.650713 38.596484 38.540215 38.481935 38.421710 38.359576 38.295604 38.229834
38.162344 38.093177 38.022416 37.950106 37.876337 37.801156 37.724655 37.646884
37.567936 37.487863 37.406759 37.324674 37.241706 37.157901 37.073356 36.988116
36.902275 36.815876 36.729009 36.641715 36.554078 36.466134 36.377966 36.289603
36.201121 36.112546 36.023947 35.935345 35.846804 35.758338 35.670003 35.581810
35.493808 35.406000 35.318431 35.231100 35.144041 35.057250 34.970756 34.884549
34.798652 34.713051 34.627763 34.542769 34.458081 34.373679 34.289567 34.205722
34.122145 34.038811 33.955714 33.872829 33.790147 33.707640 33.625295 33.543086
33.460995 33.378996 33.297069 33.215189 33.133333
33.511111 33.623437 33.735792 33.848204 33.960704 34.073317 34.186075 34.298998
34.412119 34.525453 34.639034 34.752870 34.866994 34.981409 35.096146 35.211202
35.326605 35.442343 35.558443 35.674886 35.791691 35.908835 36.026332 36.144149
36.262295 36.380727 36.499451 36.618413 36.737613 36.856989 36.976531 37.096172
37.215893 37.335616 37.455318 37.574912 37.694366 37.813585 37.932532 38.051103
38.169253 38.286873 38.403913 38.520255 38.635845 38.750562 38.864345 38.977070
39.088675 39.199032 39.308076 39.415681 39.521779 39.626244 39.729011 39.829956
39.929015 40.026067 40.121052 40.213854 40.304417 40.392632 40.478446 40.561759
40.642523 40.720646 40.796086 40.868759 40.938630 41.005624 41.069712 41.130827
41.188945 41.244011 41.296004 41.344877 41.390614 41.433177 41.472555 41.508714
41.541647 41.571329 41.597754 41.620903 41.640772 41.657349 41.670630 41.680607
41.687279 41.690643 41.690697 41.687443 41.680881 41.671016 41.657850 41.641392
41.621644 41.598622 41.572330 41.542787 41.510001 41.473996 41.434782 41.392392
41.346837 41.298158 41.246371 41.191525 41.133639 41.072772 41.008947 40.942232
40.872657 40.800299 40.725193 40.647423 40.567034 40.484118 40.398723 40.310951
40.220856 40.128548 40.034084 39.937580 39.839098 39.738760 39.636631 39.532835
39.427440 39.320572 39.212299 39.102750 38.991989 38.880146 38.767284 38.653528
38.538940 38.423643 38.307690 38.191201 38.074226 37.956878 37.839199 37.721296
37.603205 37.485025 37.366785 37.248576 37.130420 37.012397 36.894524 36.776871
36.659448 36.542316 36.425478 36.308986 36.192835 36.077069 35.961678 35.846697
35.732108 35.617939 35.504167 35.390812 35.277847 35.165283 35.053091 34.941274
34.829800 34.718666 34.607837 34.497303 34.387030 34.277002 34.167182 34.057551
33.948073 33.838723 33.729465 33.620273 33.511111
33.888889 34.029331 34.169809 34.310362 34.451021 34.591828 34.732809 34.874008
35.015444 35.157162 35.299175 35.441525 35.584222 35.727303 35.870770 36.014659
36.158963 36.303714 36.448896 36.594535 36.740607 36.887133 37.034076 37.181453
37.329216 37.477374 37.625868 37.774700 37.923799 38.073158 38.222696 38.372397
38.522169 38.671985 38.821743 38.971408 39.120865 39.270072 39.418904 39.567310
39.715155 39.862379 40.008842 40.154476 40.299132 40.442738 40.585139 40.726258
40.865937 41.004096 41.140574 41.275288 41.408080 41.538866 41.667489 41.793867
41.917847 42.039350 42.158228 42.274407 42.387747 42.498178 42.605570 42.709859
42.810925 42.908712 43.003109 43.094068 43.181491 43.265335 43.345515 43.421996
43.494703 43.563607 43.628646 43.689796 43.747006 43.800257 43.849507 43.894744
43.935931 43.973062 44.006108 44.035065 44.059912 44.080647 44.097254 44.109734
44.118077 44.122284 44.122352 44.118282 44.110076 44.097737 44.081273 44.060686
44.035991 44.007193 43.974313 43.937356 43.896351 43.851308 43.802262 43.749226
43.692245 43.631337 43.566556 43.497925 43.425510 43.349338 43.269487 43.185991
43.098939 43.008373 42.914393 42.817048 42.716451 42.612657 42.505789 42.395912
42.283157 42.167595 42.049368 41.928550 41.805292 41.679673 41.551847 41.421898
41.289984 41.156190 41.020676 40.883527 40.744903 40.604887 40.463637 40.321233
40.177830 40.033501 39.888397 39.742586 39.596211 39.449333 39.302086 39.154523
39.006771 38.858873 38.710944 38.563020 38.415205 38.267525 38.120074 37.972869
37.825991 37.679447 37.533311 37.387578 37.242310 37.097497 36.953187 36.809363
36.666065 36.523266 36.380996 36.239225 36.097969 35.957196 35.816912 35.677079
35.537697 35.398725 35.260153 35.121937 34.984063 34.846484 34.709178 34.572100
34.435222 34.298498 34.161896 34.025372 33.888889
34.266667 34.435248 34.603874 34.772586 34.941433 35.110452 35.279690 35.449180
35.618971 35.789087 35.959577 36.130457 36.301776 36.473539 36.645792 36.818533
36.991801 37.165584 37.339918 37.514778 37.690193 37.866128 38.042604 38.219572
38.397046 38.574965 38.753333 38.932074 39.111184 39.290574 39.470228 39.650042
39.829992 40.009960 40.189910 40.369711 40.549317 40.728582 40.907451 41.085767
41.263463 41.440374 41.616422 41.791432 41.965320 42.137903 42.309090 42.478692
42.646614 42.812664 42.976743 43.138657 43.298307 43.455501 43.610139 43.762034
43.911088 44.057120 44.200036 44.339664 44.475916 44.608629 44.737723 44.863047
44.984529 45.102029 45.215486 45.324773 45.429837 45.530567 45.626918 45.718792
45.806154 45.888919 45.967059 46.040503 46.109230 46.173181 46.232341 46.286662
46.336133 46.380717 46.420407 46.455175 46.485015 46.509909 46.529853 46.544835
46.554855 46.559905 46.559987 46.555100 46.545246 46.530432 46.510659 46.485943
46.456285 46.421708 46.382217 46.337842 46.288590 46.234500 46.175585 46.111892
46.043439 45.970286 45.892455 45.810019 45.723006 45.631503 45.535546 45.435235
45.330615 45.221800 45.108843 44.991873 44.870953 44.746224 44.617759 44.485710
44.350160 44.211273 44.069137 43.923928 43.775739 43.624755 43.471073 43.314884
43.156287 42.995478 42.832556 42.667717 42.501061 42.332782 42.162977 41.991836
41.819451 41.646007 41.471590 41.296376 41.120443 40.943960 40.766993 40.589702
40.412142 40.234462 40.056706 39.879009 39.701406 39.524018 39.346869 39.170065
38.993619 38.817625 38.642085 38.467078 38.292597 38.118707 37.945391 37.772702
37.600613 37.429165 37.258325 37.088119 36.918509 36.749510 36.581077 36.413215
36.245875 36.079051 35.912691 35.746781 35.581266 35.416124 35.251298 35.086759
34.922451 34.758338 34.594367 34.430493 34.266667
34.644444 34.841192 35.037990 35.234895 35.431952 35.629218 35.826733 36.024557
36.222721 36.421284 36.620269 36.819735 37.019694 37.220202 37.421262 37.622924
37.825180 38.028074 38.231586 38.435754 38.640543 38.845983 39.052026 39.258693
39.465919 39.673716 39.882003 40.090782 40.299956 40.509514 40.719343 40.929420
41.139616 41.349895 41.560112 41.770217 41.980052 42.189553 42.398547 42.606959
42.814602 43.021390 43.227124 43.431707 43.634932 43.836693 44.036773 44.235061
44.431335 44.625479 44.817267 45.006581 45.193196 45.376992 45.557749 45.735348
45.909575 46.080314 46.247361 46.410606 46.569854 46.725006 46.875877 47.022379
47.164341 47.301685 47.434256 47.561987 47.684739 47.802454 47.915013 48.022367
48.124413 48.221111 48.312374 48.398173 48.478433 48.553133 48.622213 48.685658
48.743419 48.795487 48.841823 48.882423 48.917259 48.946327 48.969609 48.987103
48.998798 49.004695 49.004790 48.999084 48.987581 48.970283 48.947202 48.918340
48.883718 48.843340 48.797235 48.745410 48.687905 48.624729 48.555935 48.481536
48.401596 48.316136 48.225234 48.128918 48.027280 47.920358 47.808259 47.691032
47.568798 47.441618 47.309630 47.172905 47.031598 46.885790 46.735652 46.581275
46.422846 46.260464 46.094329 45.924548 45.751332 45.574794 45.395154 45.212529
45.027143 44.839118 44.648680 44.455948 44.261152 44.064407 43.865939 43.665860
43.464390 43.261633 43.057802 42.852993 42.647408 42.441133 42.234359 42.027160
41.819713 41.612081 41.404425 41.196795 40.989339 40.782092 40.575186 40.368644
40.162580 39.957006 39.752019 39.547619 39.343887 39.140811 38.938457 38.736802
38.535897 38.335709 38.136276 37.937555 37.739571 37.542274 37.345675 37.149719
36.954405 36.759673 36.565511 36.371857 36.178687 35.985937 35.793576 35.601538
35.409784 35.218250 35.026888 34.835637 34.644444
35.022222 35.247166 35.472171 35.697294 35.922599 36.148137 36.373975 36.600154
36.826742 37.053773 37.281314 37.509386 37.738054 37.967329 38.197272 38.427880
38.659210 38.891243 39.124030 39.357537 39.591807 39.826791 40.062519 40.298927
40.536035 40.773760 41.012110 41.250984 41.490377 41.730169 41.970340 42.210753
42.451374 42.692046 42.932721 43.173222 43.413488 43.653325 43.892655 44.131271
44.369081 44.605862 44.841509 45.075787 45.308581 45.539645 45.768855 45.995957
46.220820 46.443186 46.662918 46.879759 47.093570 47.304094 47.511193 47.714616
47.914230 48.109790 48.301169 48.488135 48.670569 48.848253 49.021076 49.188838
49.351440 49.508698 49.660526 49.806759 49.947324 50.082074 50.210949 50.333821
50.450642 50.561303 50.665766 50.763939 50.855796 50.941259 51.020310 51.092887
51.158978 51.218534 51.271548 51.317983 51.357835 51.391078 51.417710 51.437716
51.451094 51.457838 51.457946 51.451420 51.438262 51.418480 51.392076 51.359068
51.319460 51.273279 51.220529 51.161251 51.095452 51.023183 50.944457 50.859338
50.767847 50.670061 50.566010 50.455787 50.339430 50.217052 50.088702 49.954510
49.814537 49.668933 49.517771 49.361220 49.199367 49.032397 48.860412 48.683614
48.502116 48.316137 48.125798 47.931334 47.732875 47.530665 47.324841 47.115656
46.903250 46.687882 46.469691 46.248940 46.025765 45.800428 45.573060 45.343919
45.113128 44.880939 44.647465 44.412947 44.177489 43.941316 43.704522 43.467317
43.229779 42.992105 42.754357 42.516713 42.279223 42.042045 41.805214 41.568870
41.333031 41.097821 40.863244 40.629402 40.396287 40.163985 39.932472 39.701817
39.471987 39.243031 39.014906 38.787646 38.561199 38.335584 38.110740 37.886672
37.663314 37.440657 37.218632 36.997216 36.776338 36.555964 36.336021 36.116466
35.897226 35.678248 35.459463 35.240810 35.022222
35.400000 35.653175 35.906418 36.159800 36.413381 36.667238 36.921423 37.176012
37.431049 37.686611 37.942730 38.199480 38.456881 38.715005 38.973857 39.233503
39.493935 39.755211 40.017305 40.280269 40.544058 40.808713 41.074171 41.340463
41.607505 41.875313 42.143786 42.412925 42.682605 42.952815 43.223408 43.494355
43.765490 44.036767 44.307998 44.579120 44.849927 45.120336 45.390123 45.659191
45.927296 46.194326 46.460022 46.724259 46.986764 47.247401 47.505886 47.762073
48.015674 48.266533 48.514359 48.758995 49.000148 49.237660 49.471243 49.700742
49.925876 50.146496 50.362333 50.573246 50.778979 50.979403 51.174280 51.363493
51.546823 51.724167 51.895327 52.060214 52.218653 52.370569 52.515810 52.654313
52.785947 52.910666 53.028356 53.138984 53.242455 53.338745 53.427779 53.509539
53.583965 53.651049 53.710742 53.763040 53.807910 53.845348 53.875331 53.897860
53.912920 53.920513 53.920635 53.913286 53.898473 53.876195 53.846469 53.809296
53.764700 53.712687 53.653291 53.586519 53.512421 53.431006 53.342339 53.246435
53.143375 53.033183 52.915956 52.791729 52.660617 52.522669 52.378019 52.226730
52.068957 51.904776 51.734366 51.557817 51.375329 51.187007 50.993073 50.793645
50.588964 50.379162 50.164495 49.945108 49.721272 49.493138 49.260989 49.024983
48.785411 48.542431 48.296340 48.047297 47.795596 47.541393 47.284980 47.026506
46.766256 46.504368 46.241118 45.976632 45.711173 45.444853 45.177921 44.910471
44.642735 44.374792 44.106855 43.838984 43.571372 43.304064 43.037230 42.770899
42.505219 42.240201 41.975975 41.712535 41.449988 41.188315 40.927602 40.667817
40.409025 40.151183 39.894337 39.638432 39.383498 39.129469 38.876359 38.624095
38.372674 38.122019 37.872112 37.622871 37.374266 37.126212 36.878667 36.631547
36.384798 36.138337 35.892102 35.646013 35.400000
35.777778 36.059221 36.340743 36.622415 36.904321 37.186525 37.469113 37.752139
38.035689 38.319807 38.604578 38.890031 39.176250 39.463249 39.751107 40.039822
40.329465 40.620017 40.911541 41.204000 41.497444 41.791816 42.087156 42.383384
42.680527 42.978481 43.277259 43.576734 43.876901 44.177611 44.478840 44.780415
45.082295 45.384283 45.686316 45.988177 46.289784 46.590895 46.891411 47.191071
47.489755 47.787185 48.083224 48.377578 48.670096 48.960469 49.248536 49.533977
49.816621 50.096144 50.372368 50.644967 50.913761 51.178425 51.438783 51.694515
51.945448 52.191276 52.431834 52.666828 52.896106 53.119393 53.336549 53.547320
53.751581 53.949103 54.139776 54.323395 54.499867 54.669012 54.830754 54.984936
55.131500 55.270311 55.401325 55.524431 55.639595 55.746728 55.845807 55.936758
56.019570 56.094184 56.160594 56.218757 56.268669 56.310301 56.343651 56.368702
56.385453 56.393896 56.394031 56.385859 56.369382 56.344610 56.311545 56.270206
56.220598 56.162751 56.096671 56.022403 55.939956 55.849388 55.750715 55.644012
55.529303 55.406681 55.276181 55.137916 54.991932 54.838367 54.677280 54.508832
54.333099 54.150265 53.960425 53.763786 53.560459 53.350678 53.134569 52.912390
52.684280 52.450519 52.211261 51.966804 51.717312 51.463097 51.204333 50.941342
50.674303 50.403545 50.129248 49.851743 49.571208 49.287973 49.002208 48.714238
48.424225 48.132482 47.839159 47.544558 47.248812 46.952207 46.654861 46.357040
46.058843 45.760517 45.462141 45.163940 44.865974 44.568444 44.271391 43.974992
43.679269 43.384376 43.090316 42.797218 42.505070 42.213976 41.923910 41.634952
41.347061 41.060297 40.774606 40.490026 40.206493 39.924026 39.642550 39.362069
39.082498 38.803824 38.525959 38.248873 37.972474 37.696720 37.421517 37.146808
36.872502 36.598532 36.324807 36.051251 35.777778
36.155556 36.465308 36.775145 37.085157 37.395420 37.706027 38.017047 38.328575
38.640665 38.953414 39.266864 39.581108 39.896172 40.212146 40.529039 40.846935
41.165823 41.485778 41.806771 42.128866 42.452012 42.776259 43.101535 43.427874
43.755180 44.083473 44.412630 44.742652 45.073390 45.404829 45.736792 46.069242
46.401978 46.734940 47.067901 47.400781 47.733326 48.065436 48.396832 48.727394
49.056821 49.384973 49.711529 50.036331 50.359044 50.679492 50.997328 51.312365
51.624244 51.932772 52.237586 52.538485 52.835108 53.127255 53.414568 53.696850
53.973755 54.245093 54.510531 54.769891 55.022859 55.269271 55.508834 55.741402
55.966707 56.184620 56.394900 56.597438 56.792020 56.978555 57.156860 57.326860
57.488397 57.641417 57.785787 57.921465 58.048344 58.166395 58.275530 58.375734
58.466935 58.549126 58.622253 58.686313 58.741267 58.787115 58.823831 58.851417
58.869857 58.879153 58.879302 58.870303 58.852164 58.824884 58.788481 58.742955
58.688334 58.624621 58.551857 58.470046 58.379245 58.279463 58.170773 58.053194
57.926817 57.791669 57.647865 57.495444 57.334545 57.165222 56.987639 56.801869
56.608100 56.406425 56.197060 55.980118 55.755841 55.524362 55.285950 55.040755
54.789072 54.531068 54.267061 53.997229 53.721910 53.441295 53.155735 52.865428
52.570736 52.271861 51.969168 51.662859 51.353301 51.040689 50.725386 50.407580
50.087623 49.765691 49.442125 49.117083 48.790890 48.463687 48.135779 47.807287
47.478494 47.149501 46.820565 46.491767 46.163339 45.835337 45.507970 45.181273
44.855425 44.530442 44.206478 43.883527 43.561718 43.241027 42.921556 42.603265
42.286233 41.970403 41.655831 41.342448 41.030286 40.719266 40.409400 40.100599
39.792856 39.486074 39.180230 38.875221 38.571008 38.267487 37.964602 37.662249
37.360360 37.058833 36.757587 36.456524 36.155556
36.533333 36.871437 37.209637 37.548023 37.886698 38.225741 38.565258 38.905316
39.246023 39.587431 39.929647 40.272710 40.616720 40.961698 41.307742 41.654851
42.003114 42.352511 42.703119 43.054896 43.407906 43.762082 44.117474 44.473988
44.831658 45.190364 45.550119 45.910775 46.272325 46.634594 46.997550 47.360990
47.724861 48.088928 48.453115 48.817160 49.180961 49.544229 49.906841 50.268479
50.628998 50.988058 51.345493 51.700942 52.054220 52.404950 52.752932 53.097776
53.439269 53.777016 54.110795 54.440207 54.765029 55.084865 55.399492 55.708524
56.011743 56.308777 56.599419 56.883315 57.160274 57.429964 57.692211 57.946709
58.193306 58.431723 58.661831 58.883381 59.096265 59.300266 59.495296 59.681169
59.857819 60.025087 60.182925 60.331203 60.469887 60.598872 60.718137 60.827598
60.927245 61.017014 61.096899 61.166854 61.226879 61.276941 61.317041 61.347159
61.367297 61.377446 61.377608 61.367783 61.347972 61.318187 61.278428 61.228717
61.169055 61.099478 61.019987 60.930632 60.831421 60.722419 60.603640 60.475169
60.337031 60.189332 60.032109 59.865494 59.689540 59.504405 59.310160 59.106994
58.894997 58.674387 58.445278 58.207919 57.962443 57.709132 57.448140 57.179778
56.904220 56.621804 56.332720 56.037330 55.735840 55.428628 55.115912 54.798084
54.475368 54.148164 53.816697 53.481371 53.142409 52.800211 52.454991 52.107144
51.756871 51.404555 51.050380 50.694713 50.337721 49.979748 49.620941 49.261621
48.901912 48.542109 48.182312 47.822789 47.463616 47.105032 46.747087 46.389994
46.033779 45.678623 45.324532 44.971658 44.619984 44.269636 43.920576 43.572903
43.226563 42.881627 42.538025 42.195804 41.854882 41.515280 41.176907 40.839762
40.503743 40.168832 39.834919 39.501966 39.169862 38.838551 38.507918 38.177896
37.848368 37.519254 37.190441 36.861837 36.533333
36.911111 37.277611 37.644215 38.011030 38.378152 38.745694 39.113739 39.482402
39.851753 40.221908 40.592919 40.964900 41.337885 41.711983 42.087209 42.463663
42.841339 43.220325 43.600592 43.982217 44.365144 44.749434 45.135005 45.521900
45.910008 46.299353 46.689794 47.081332 47.473796 47.867165 48.261233 48.655956
49.051096 49.446583 49.842147 50.237692 50.632918 51.027700 51.421710 51.814799
52.206609 52.596967 52.985493 53.371991 53.756058 54.137480 54.515840 54.890906
55.262250 55.629631 55.992613 56.350948 56.704203 57.052128 57.394295 57.730461
58.060209 58.383304 58.699349 59.008124 59.309253 59.602536 59.887625 60.164340
60.432364 60.691542 60.941590 61.182376 61.413652 61.635310 61.847135 62.049045
62.240856 62.422507 62.593847 62.754833 62.905342 63.045347 63.174750 63.293536
63.401630 63.499026 63.585668 63.661554 63.726645 63.780944 63.824424 63.857088
63.878922 63.889928 63.890102 63.879446 63.857966 63.825662 63.782551 63.728631
63.663933 63.588454 63.502240 63.405291 63.297668 63.179378 63.050501 62.911052
62.761134 62.600774 62.430100 62.249156 62.058097 61.856987 61.646012 61.425257
61.194941 60.955173 60.706206 60.448173 60.181363 59.905933 59.622205 59.330358
59.030747 58.723574 58.409218 58.087902 57.760028 57.425832 57.085736 56.739984
56.389012 56.033067 55.672591 55.307832 54.939231 54.567029 54.191663 53.813362
53.432552 53.049446 52.664454 52.277769 51.889781 51.500662 51.110775 50.720268
50.329477 49.938526 49.547720 49.157154 48.767105 48.377641 47.989006 47.601243
47.214562 46.828981 46.444680 46.061651 45.680044 45.299829 44.921124 44.543879
44.168184 43.793971 43.421301 43.050091 42.680376 42.312060 41.945152 41.579545
41.215228 40.852084 40.490080 40.129095 39.769077 39.409900 39.051496 38.693739
38.336546 37.979791 37.623378 37.267187 36.911111
37.288889 37.683830 38.078888 38.474171 38.869801 39.265875 39.662520 40.059819
40.457899 40.856829 41.256733 41.657662 42.059736 42.462985 42.867524 43.273359
43.680594 44.089212 44.499305 44.910829 45.323859 45.738324 46.154283 46.571631
46.990408 47.410480 47.831861 48.254384 48.678040 49.102627 49.528110 49.954252
50.380990 50.808051 51.235345 51.662564 52.089588 52.516078 52.941882 53.366631
53.790148 54.212031 54.632078 55.049864 55.465164 55.877530 56.286718 56.692265
57.093913 57.491190 57.883825 58.271344 58.653474 59.029743 59.399880 59.763423
60.120109 60.469495 60.811329 61.145191 61.470849 61.787911 62.096169 62.395262
62.685007 62.965080 63.235326 63.495459 63.745349 63.984750 64.213559 64.431567
64.638697 64.834773 65.019743 65.193462 65.355898 65.506935 65.646555 65.774669
65.891269 65.996289 66.089729 66.171541 66.241728 66.300258 66.347135 66.382340
66.405878 66.417740 66.417927 66.406442 66.383284 66.348465 66.301983 66.243861
66.174095 66.092723 65.999741 65.895202 65.779107 65.651527 65.512472 65.362033
65.200232 65.027186 64.842932 64.647617 64.441296 64.224149 63.996253 63.757825
63.508966 63.249930 62.980847 62.702007 62.413568 62.115859 61.809064 61.493549
61.169525 60.837388 60.497372 60.149903 59.795233 59.433812 59.065904 58.691976
58.312302 57.927358 57.537420 57.142967 56.744271 56.341810 55.935844 55.526841
55.115047 54.700915 54.284671 53.866746 53.447344 53.026871 52.605504 52.183622
51.761372 51.339101 50.916930 50.495171 50.073915 49.653439 49.233806 48.815258
48.397828 47.981725 47.566955 47.153691 46.741914 46.331765 45.923201 45.516330
45.111088 44.707554 44.305645 43.905410 43.506751 43.109689 42.714114 42.320021
41.927288 41.535889 41.145693 40.756654 40.368635 39.981570 39.595321 39.209804
38.824883 38.440457 38.056394 37.672581 37.288889
37.666667 38.090098 38.513652 38.937460 39.361633 39.786309 40.211585 40.637601
41.064440 41.492239 41.921065 42.351053 42.782246 43.214775 43.648660 44.084022
44.520857 44.959273 45.399239 45.840848 46.284040 46.728890 47.175306 47.623341
48.072872 48.523928 48.976349 49.430142 49.885108 50.341225 50.798260 51.256159
51.714651 52.173652 52.632852 53.092137 53.551158 54.009769 54.467588 54.924435
55.379896 55.833761 56.285585 56.735133 57.181934 57.625729 58.066025 58.502545
58.934783 59.362447 59.785024 60.202213 60.613502 61.018590 61.416970 61.808347
62.192232 62.568339 62.936202 63.295555 63.645959 63.987171 64.318787 64.640592
64.952219 65.253484 65.544061 65.823796 66.092405 66.349767 66.595638 66.829926
67.052429 67.263079 67.461711 67.648283 67.822661 67.984822 68.134663 68.272174
68.397277 68.509972 68.610203 68.697975 68.773248 68.836031 68.886299 68.924059
68.949296 68.962017 68.962217 68.949898 68.925066 68.887720 68.837875 68.775526
68.700704 68.613400 68.513660 68.401478 68.276916 68.139976 67.990739 67.829217
67.655518 67.469666 67.271800 67.061963 66.840328 66.606959 66.362067 66.105745
65.838241 65.559679 65.270348 64.970402 64.660175 64.339850 64.009802 63.670246
63.321593 62.964086 62.598172 62.224115 61.842392 61.453286 61.057295 60.654714
60.246058 59.831626 59.411939 58.987299 58.558225 58.125010 57.688167 57.247974
56.804930 56.359295 55.911547 55.461921 55.010870 54.558602 54.105540 53.651863
53.197959 52.743975 52.290265 51.836943 51.384327 50.932497 50.481733 50.032085
49.583794 49.136880 48.691545 48.247782 47.805758 47.365436 46.926948 46.490236
46.055397 45.622350 45.191161 44.761730 44.334094 43.908137 43.483867 43.061155
42.639984 42.220216 41.801808 41.384616 40.968575 40.553538 40.139421 39.726075
39.313398 38.901244 38.489497 38.078014 37.666667
38.044444 38.496411 38.948515 39.400886 39.853668 40.306976 40.760962 41.215723
41.671411 42.128109 42.585964 43.045038 43.505475 43.967314 44.430689 44.895614
45.362212 45.830469 46.300495 46.772243 47.245806 47.721106 48.198214 48.677016
49.157560 49.639697 50.123448 50.608624 51.095217 51.583000 52.071932 52.561745
53.052366 53.543486 54.034997 54.526549 55.018000 55.508959 55.999249 56.488443
56.976328 57.462444 57.946547 58.428143 58.906963 59.382486 59.854418 60.322221
60.785581 61.243948 61.696996 62.144169 62.585137 63.019349 63.446477 63.865982
64.277546 64.680650 65.074994 65.460087 65.835653 66.201237 66.556591 66.901298
67.235145 67.557760 67.868961 68.168425 68.456005 68.731423 68.994567 69.245202
69.483249 69.708515 69.920947 70.120393 70.306821 70.480113 70.640255 70.787159