<?xml version="1.0"?>
<VTKFile type="ImageData" version="0.1" byte_order="LittleEndian">
  <ImageData WholeExtent="0 180 0 180 0 0" Origin="0.0 0.0 0.0" Spacing="0.05 0.05 1">
    <Piece Extent="0 180 0 180 0 0">
      <PointData Scalars="Temperature">
        <DataArray type="Float32" Name="Temperature" format="ascii">
32.000000 32.000000 32.000000 32.000000 32.000000 32.000000 32.000000 32.000000 32.000000 32.000000 32.000000 32.000000 32.000000 32.000000 32.000000 32.000000 32.000000 32.000000 32.000000 32.000000 32.000000 32.000000 32.000000 32.000000 32.000000 32.000000 32.000000 32.000000 32.000000 32.000000 32.000000 32.000000 32.000000 32.000000 32.000000 32.000000 32.000000 32.000000 32.000000 32.000000 32.000000 32.000000 32.000000 32.000000 32.000000 32.000000 32.000000 32.000000 32.000000 32.000000 32.000000 32.000000 32.000000 32.000000 32.000000 32.000000 32.000000 32.000000 32.000000 32.000000 32.000000 32.000000 32.000000 32.000000 32.000000 32.000000 32.000000 32.000000 32.000000 32.000000 32.000000 32.000000 32.000000 32.000000 32.000000 32.000000 32.000000 32.000000 32.000000 32.000000 32.000000 32.000000 32.000000 32.000000 32.000000 32.000000 32.000000 32.000000 32.000000 32.000000 32.000000 32.000000 32.000000 32.000000 32.000000 32.000000 32.000000 32.000000 32.000000 32.000000 32.000000 32.000000 32.000000 32.000000 32.000000 32.000000 32.000000 32.000000 32.000000 32.000000 32.000000 32.000000 32.000000 32.000000 32.000000 32.000000 32.000000 32.000000 32.000000 32.000000 32.000000 32.000000 32.000000 32.000000 32.000000 32.000000 32.000000 32.000000 32.000000 32.000000 32.000000 32.000000 32.000000 32.000000 32.000000 32.000000 32.000000 32.000000 32.000000 32.000000 32.000000 32.000000 32.000000 32.000000 32.000000 32.000000 32.000000 32.000000 32.000000 32.000000 32.000000 32.000000 32.000000 32.000000 32.000000 32.000000 32.000000 32.000000 32.000000 32.000000 32.000000 32.000000 32.000000 32.000000 32.000000 32.000000 32.000000 32.000000 32.000000 32.000000 32.000000 32.000000 32.000000 32.000000 32.000000 32.000000 32.000000 32.000000 32.000000 32.000000 32.000000
32.377778 32.380202 32.382657 32.385178 32.387790 32.390534 32.393428 32.396517 32.399814 32.403369 32.407185 32.411317 32.415763 32.420580 32.425757 32.431354 32.437355 32.443822 32.450729 32.458140 32.466022 32.474441 32.483356 32.492832 32.502821 32.513389 32.524480 32.536159 32.548362 32.561155 32.574464 32.588356 32.602749 32.617709 32.633147 32.649125 32.665550 32.682483 32.699821 32.717627 32.735790 32.754371 32.773256 32.792502 32.811992 32.831780 32.851746 32.871943 32.892248 32.912713 32.933211 32.953795 32.974338 32.994890 33.015325 33.035692 33.055867 33.075897 33.095663 33.115210 33.134422 33.153342 33.171861 33.190022 33.207718 33.224993 33.241747 33.258021 33.273723 33.288893 33.303444 33.317417 33.330732 33.343426 33.355429 33.366775 33.377402 33.387341 33.396539 33.405022 33.412746 33.419734 33.425949 33.431411 33.436091 33.440003 33.443128 33.445474 33.447031 33.447803 33.447785 33.446978 33.445386 33.443003 33.439842 33.435892 33.431174 33.425674 33.419418 33.412389 33.404623 33.396096 33.386852 33.376866 33.366189 33.354792 33.342736 33.329987 33.316614 33.302582 33.287967 33.272733 33.256963 33.240619 33.223792 33.206441 33.188666 33.170424 33.151821 33.132814 33.113512 33.093874 33.074013 33.053885 33.033609 33.013141 32.992601 32.971943 32.951292 32.930599 32.909989 32.889412 32.868994 32.848683 32.828603 32.808701 32.789098 32.769740 32.750744 32.732054 32.713784 32.695875 32.678437 32.661408 32.644892 32.628827 32.613310 32.598277 32.583818 32.569869 32.556511 32.543680 32.531449 32.519753 32.508659 32.498099 32.488134 32.478696 32.469836 32.461488 32.453695 32.446392 32.439613 32.433295 32.427464 32.422059 32.417098 32.412521 32.408341 32.404500 32.401002 32.397792 32.394870 32.392182 32.389721 32.387439 32.385320 32.383322 32.381422 32.379584 32.377778
32.755556 32.760427 32.765365 32.770424 32.775682 32.781181 32.787008 32.793195 32.799835 32.806946 32.814632 32.822895 32.831846 32.841474 32.851894 32.863082 32.875157 32.888078 32.901972 32.916781 32.932633 32.949455 32.967378 32.986313 33.006392 33.027509 33.049799 33.073136 33.097657 33.123221 33.149961 33.177723 33.206637 33.236534 33.267542 33.299477 33.332465 33.366307 33.401127 33.436715 33.473189 33.510328 33.548248 33.586717 33.625849 33.665403 33.705489 33.745861 33.786624 33.827530 33.868681 33.909826 33.951063 33.992143 34.033162 34.073873 34.114368 34.154405 34.194076 34.233146 34.271703 34.309520 34.346685 34.382981 34.418493 34.453018 34.486638 34.519161 34.550668 34.580982 34.610180 34.638100 34.664816 34.690180 34.714263 34.736933 34.758253 34.778112 34.796564 34.813512 34.829007 34.842968 34.855437 34.866348 34.875736 34.883552 34.889820 34.894508 34.897630 34.899172 34.899136 34.897524 34.894330 34.889570 34.883229 34.875339 34.865875 34.854886 34.842338 34.828295 34.812714 34.795678 34.777134 34.757182 34.735762 34.712990 34.688801 34.663326 34.636495 34.608455 34.579132 34.548688 34.517045 34.484381 34.450616 34.415940 34.380270 34.343811 34.306478 34.268487 34.229751 34.190497 34.150636 34.110404 34.069709 34.028795 33.987567 33.946274 33.904820 33.863456 33.822083 33.780952 33.739962 33.699363 33.659050 33.619268 33.579910 33.541217 33.503075 33.465719 33.429031 33.393237 33.358217 33.324183 33.291012 33.258906 33.227738 33.197695 33.168650 33.140774 33.113936 33.088296 33.063719 33.040349 33.018052 32.996954 32.976921 32.958064 32.940249 32.923571 32.907897 32.893306 32.879667 32.867044 32.855308 32.844508 32.834519 32.825373 32.816952 32.809273 32.802223 32.795805 32.789912 32.784533 32.779570 32.774997 32.770724 32.766715 32.762887 32.759191 32.755556
33.133333 33.140701 33.148161 33.155820 33.163752 33.172080 33.180860 33.190229 33.200222 33.210990 33.222546 33.235052 33.248502 33.263067 33.278717 33.295633 33.313763 33.333294 33.354149 33.376522 33.400314 33.425721 33.452619 33.481208 33.511340 33.543216 33.576663 33.611883 33.648678 33.687250 33.727377 33.769258 33.812647 33.857742 33.904275 33.952438 34.001942 34.052976 34.105232 34.158892 34.213631 34.269625 34.326535 34.384530 34.443259 34.502885 34.563045 34.623899 34.685077 34.746732 34.808490 34.870500 34.932387 34.994295 35.055852 35.117198 35.177967 35.238295 35.297825 35.356690 35.414544 35.471518 35.527280 35.581958 35.635237 35.687243 35.737678 35.786665 35.833927 35.879583 35.923379 35.965426 36.005494 36.043690 36.079807 36.113943 36.145915 36.175815 36.203484 36.229002 36.252236 36.273254 36.291948 36.308375 36.322450 36.334216 36.343613 36.350670 36.355352 36.357672 36.357619 36.355193 36.350404 36.343239 36.333732 36.321855 36.307666 36.291123 36.272309 36.251167 36.227806 36.202156 36.174350 36.144309 36.112188 36.077899 36.041623 36.003261 35.963019 35.920792 35.876809 35.830958 35.783493 35.734295 35.683641 35.631408 35.577893 35.522971 35.466957 35.409722 35.351600 35.292458 35.232644 35.172023 35.110955 35.049302 34.987432 34.925205 34.862994 34.800654 34.738563 34.676571 34.615054 34.553859 34.493357 34.433390 34.374323 34.315991 34.258749 34.202429 34.147371 34.093400 34.040845 33.989523 33.939745 33.891325 33.844554 33.799240 33.755654 33.713602 33.673331 33.634644 33.597766 33.562497 33.529040 33.497192 33.467132 33.438659 33.411926 33.386734 33.363213 33.341165 33.320695 33.301611 33.283995 33.267658 33.252659 33.238816 33.226166 33.214535 33.203938 33.194209 33.185343 33.177184 33.169706 33.162766 33.156318 33.150233 33.144445 33.138840 33.133333
33.511111 33.521042 33.531107 33.541416 33.552123 33.563316 33.575168 33.587741 33.601225 33.615656 33.631241 33.647986 33.666114 33.685600 33.706679 33.729299 33.753703 33.779808 33.807866 33.837762 33.869755 33.903697 33.939853 33.978042 34.018530 34.061106 34.106036 34.153075 34.202491 34.254005 34.307883 34.363815 34.422063 34.482287 34.544745 34.609066 34.675503 34.743659 34.813780 34.885443 34.958888 35.033669 35.110018 35.187472 35.266253 35.345884 35.426579 35.507849 35.589902 35.672239 35.755063 35.837871 35.920860 36.003529 36.086068 36.167983 36.249457 36.330007 36.409812 36.488401 36.565952 36.642011 36.716750 36.789737 36.861140 36.930552 36.998137 37.063513 37.126839 37.187763 37.246438 37.302540 37.356216 37.407174 37.455551 37.501087 37.543910 37.583792 37.620846 37.654881 37.685993 37.714024 37.739057 37.760962 37.779808 37.795498 37.808080 37.817491 37.823759 37.826853 37.826783 37.823547 37.817136 37.807582 37.794854 37.779016 37.760018 37.737957 37.712765 37.684570 37.653287 37.619077 37.581840 37.541769 37.498750 37.453009 37.404419 37.353240 37.299334 37.242991 37.184067 37.122883 37.059286 36.993629 36.925752 36.856037 36.784320 36.711008 36.635933 36.559527 36.481618 36.402659 36.322475 36.241535 36.159662 36.077339 35.994383 35.911289 35.827867 35.744620 35.661351 35.578565 35.496060 35.414336 35.333186 35.253101 35.173867 35.095965 35.019173 34.943958 34.870088 34.798011 34.727491 34.658953 34.592151 34.527488 34.464712 34.404197 34.345688 34.289529 34.235458 34.183793 34.134267 34.087166 34.042221 33.999687 33.959294 33.921263 33.885328 33.851676 33.820043 33.790585 33.763041 33.737537 33.713817 33.691975 33.671764 33.653247 33.636187 33.620616 33.606310 33.593272 33.581289 33.570339 33.560223 33.550892 33.542164 33.533964 33.526129 33.518559 33.511111
33.888889 33.901483 33.914230 33.927311 33.940851 33.955054 33.970016 33.985963 34.002958 34.021250 34.040866 34.062073 34.084864 34.109523 34.136003 34.164605 34.195243 34.228228 34.263437 34.301191 34.341324 34.384165 34.429510 34.477689 34.528459 34.582153 34.638484 34.697789 34.759739 34.824667 34.892207 34.962689 35.035704 35.111579 35.189869 35.270893 35.354170 35.440012 35.527905 35.618152 35.710210 35.804372 35.900070 35.997587 36.096332 36.196579 36.297721 36.400020 36.502860 36.606492 36.710293 36.814508 36.918511 37.022539 37.125970 37.229036 37.331125 37.432462 37.532450 37.631309 37.728462 37.824124 37.917743 38.009530 38.098960 38.186239 38.270874 38.353067 38.432358 38.508942 38.582398 38.652912 38.720101 38.784140 38.844688 38.901907 38.955496 39.005603 39.051969 39.094725 39.133651 39.168862 39.200179 39.227694 39.251269 39.270975 39.286714 39.298533 39.306374 39.310260 39.310172 39.306109 39.298091 39.286092 39.270171 39.250279 39.226515 39.198806 39.167290 39.131874 39.092735 39.049759 39.003167 38.952823 38.898988 38.841514 38.780701 38.716385 38.648908 38.578094 38.504326 38.427417 38.347787 38.265243 38.180243 38.092586 38.002764 37.910571 37.816532 37.720435 37.622835 37.523515 37.423053 37.321229 37.218641 37.115064 37.011112 36.906552 36.802009 36.697246 36.592890 36.488696 36.385292 36.282424 36.180714 36.079899 35.980589 35.882513 35.786262 35.691557 35.598968 35.508205 35.419814 35.333494 35.249763 35.168312 35.089626 35.013388 34.940049 34.869283 34.801506 34.736388 34.674304 34.614922 34.558577 34.504934 34.454289 34.406307 34.361244 34.318766 34.279088 34.241883 34.207324 34.175089 34.145314 34.117685 34.092299 34.068853 34.047406 34.027668 34.009661 33.993112 33.978007 33.964089 33.951311 33.939437 33.928387 33.917944 33.908000 33.898361 33.888889
34.266667 34.282033 34.297600 34.313537 34.330076 34.347349 34.365617 34.384974 34.405708 34.427874 34.451782 34.477444 34.505194 34.534999 34.567210 34.601751 34.638987 34.678796 34.721556 34.767096 34.815805 34.867463 34.922466 34.980545 35.042101 35.106814 35.175087 35.246551 35.321609 35.399843 35.481651 35.566569 35.654989 35.746400 35.841188 35.938798 36.039607 36.143019 36.249399 36.358115 36.469521 36.582951 36.698747 36.816214 36.935683 37.056436 37.178790 37.302010 37.426403 37.551222 37.676763 37.802275 37.928044 38.053321 38.178383 38.302490 38.425911 38.547922 38.668786 38.787798 38.905217 39.020364 39.133494 39.243959 39.352009 39.457032 39.559271 39.658157 39.753924 39.846047 39.934751 40.019556 40.100679 40.177684 40.250776 40.319569 40.384251 40.444485 40.500441 40.551830 40.598803 40.641119 40.678904 40.711968 40.740410 40.764089 40.783076 40.797278 40.806737 40.811407 40.811301 40.806420 40.796748 40.782331 40.763125 40.739225 40.710555 40.677259 40.639235 40.596673 40.549446 40.497793 40.441565 40.381048 40.316072 40.246972 40.173562 40.096224 40.014757 39.929592 39.840513 39.748001 39.651828 39.552521 39.449844 39.344367 39.235847 39.124895 39.011261 38.895593 38.777636 38.658072 38.536638 38.414044 38.290023 38.165305 38.039617 37.913703 37.787285 37.661116 37.534908 37.409416 37.284345 37.160445 37.037409 36.915976 36.795829 36.677691 36.561232 36.447152 36.335109 36.225776 36.118798 36.014815 35.913462 35.815342 35.720079 35.628235 35.539427 35.454172 35.372080 35.293623 35.218405 35.146852 35.078563 35.013917 34.952511 34.894677 34.840011 34.788797 34.740637 34.695763 34.653785 34.614887 34.578688 34.545326 34.514430 34.486093 34.459958 34.436073 34.414099 34.394040 34.375577 34.358673 34.343030 34.328571 34.315025 34.302275 34.290077 34.278280 34.266667
34.644444 34.662731 34.681233 34.700208 34.719829 34.740389 34.762018 34.785040 34.809541 34.835874 34.864076 34.894527 34.927214 34.962539 35.000439 35.041334 35.085108 35.132197 35.182429 35.236255 35.293447 35.354464 35.419022 35.487584 35.559811 35.636170 35.716261 35.800553 35.888589 35.980835 36.076777 36.176876 36.280563 36.388291 36.499440 36.614450 36.732652 36.854476 36.979206 37.107259 37.237878 37.371464 37.507224 37.645547 37.785608 37.927781 38.071217 38.216277 38.362095 38.509017 38.656170 38.803888 38.951294 39.098714 39.245276 39.391296 39.535917 39.679448 39.821051 39.961030 40.098575 40.233984 40.366481 40.496358 40.622881 40.746335 40.866031 40.982247 41.094343 41.202588 41.306395 41.406022 41.500936 41.591383 41.676885 41.757670 41.833319 41.904042 41.969474 42.029802 42.084721 42.134391 42.178563 42.217368 42.250615 42.278403 42.300596 42.317262 42.328318 42.333798 42.333675 42.327948 42.316645 42.299728 42.277281 42.249234 42.215723 42.176647 42.132197 42.082240 42.027025 41.966390 41.900640 41.829588 41.753595 41.672453 41.586580 41.495747 41.400430 41.300384 41.196140 41.087441 40.974872 40.858165 40.737959 40.613976 40.486904 40.356458 40.223373 40.087357 39.949186 39.808562 39.666295 39.522083 39.376764 39.230029 39.082738 38.934575 38.786413 38.637927 38.489998 38.342291 38.195683 38.049830 37.905599 37.762632 37.621783 37.482677 37.346145 37.211800 37.080442 36.951668 36.826244 36.703753 36.584919 36.469314 36.357616 36.249384 36.145248 36.044756 35.948488 35.855983 35.767766 35.683372 35.603270 35.526990 35.454947 35.386671 35.322517 35.262020 35.205479 35.152433 35.103124 35.057101 35.014552 34.975035 34.938685 34.905077 34.874290 34.845919 34.819991 34.796123 34.774292 34.754140 34.735596 34.718328 34.702223 34.686977 34.672433 34.658321 34.644444
35.022222 35.043580 35.065209 35.087335 35.110271 35.134197 35.159462 35.186195 35.214781 35.245297 35.278158 35.313384 35.351420 35.392227 35.436274 35.483462 35.534280 35.588567 35.646829 35.708841 35.775122 35.845381 35.920148 35.999065 36.082667 36.170532 36.263194 36.360165 36.461979 36.568083 36.679005 36.794127 36.913970 37.037855 37.166291 37.298541 37.435101 37.575178 37.719254 37.866487 38.017341 38.170929 38.327698 38.486724 38.648437 38.811880 38.977468 39.144218 39.312531 39.481409 39.651238 39.821014 39.991109 40.160521 40.329614 40.497395 40.664219 40.829113 40.992424 41.153209 41.311807 41.467312 41.620056 41.769177 41.915001 42.056715 42.194637 42.328011 42.457145 42.581342 42.700899 42.815180 42.924470 43.028195 43.126625 43.219249 43.306319 43.387388 43.462684 43.531825 43.595012 43.651929 43.702743 43.747205 43.785447 43.817282 43.842808 43.861899 43.874616 43.880894 43.880754 43.874194 43.861195 43.841818 43.816002 43.783872 43.745329 43.700558 43.649426 43.592182 43.528658 43.459166 43.383508 43.302062 43.214601 43.121569 43.022715 42.918549 42.808799 42.694039 42.573984 42.449269 42.319594 42.185660 42.047154 41.904835 41.758385 41.608615 41.455199 41.299000 41.139687 40.978165 40.814096 40.648423 40.480803 40.312205 40.142279 39.972018 39.801059 39.630407 39.459690 39.289917 39.120701 38.953045 38.786549 38.622201 38.459586 38.299668 38.142017 37.987565 37.835865 37.687812 37.542943 37.402108 37.264827 37.131902 37.002838 36.878382 36.758027 36.642462 36.531169 36.424777 36.322757 36.225678 36.133005 36.045241 35.961851 35.883272 35.808970 35.739317 35.673783 35.612677 35.555475 35.502423 35.453009 35.407415 35.365146 35.326321 35.290465 35.257637 35.227385 35.199710 35.174186 35.150759 35.129032 35.108899 35.089995 35.072163 35.055074 35.038524 35.022222
35.400000 35.424623 35.449528 35.475046 35.501406 35.528985 35.557956 35.588737 35.621443 35.656529 35.694050 35.734492 35.777846 35.824629 35.874765 35.928795 35.986574 36.048664 36.114850 36.185709 36.260954 36.341174 36.426009 36.516056 36.610879 36.711079 36.816147 36.926682 37.042102 37.163001 37.288723 37.419857 37.555674 37.696751 37.842293 37.992862 38.147598 38.307047 38.470290 38.637854 38.808767 38.983536 39.161142 39.342072 39.525267 39.711196 39.898766 40.088429 40.279070 40.471124 40.663462 40.856504 41.049120 41.241716 41.433168 41.623873 41.812724 42.000108 42.184947 42.367620 42.547087 42.723718 42.896520 43.065858 43.230789 43.391673 43.547626 43.699001 43.844977 43.985897 44.121010 44.250644 44.374120 44.491750 44.602926 44.707942 44.806262 44.898155 44.983160 45.061516 45.132836 45.197327 45.254673 45.305043 45.348195 45.384257 45.413057 45.434682 45.449029 45.456141 45.455984 45.448556 45.433892 45.411946 45.382821 45.346427 45.302938 45.252220 45.194518 45.129660 45.057960 44.979211 44.893798 44.801483 44.702723 44.597250 44.485597 44.367472 44.243479 44.113307 43.977633 43.836130 43.689547 43.537542 43.380933 43.219369 43.053733 42.883666 42.710109 42.532697 42.352426 42.168924 41.983233 41.794974 41.605226 41.413604 41.221214 41.027664 40.834077 40.640049 40.446713 40.253652 40.061997 39.871315 39.682725 39.495778 39.311572 39.129638 38.951044 38.775302 38.603441 38.434954 38.270824 38.110522 37.954980 37.803653 37.657411 37.515693 37.379307 37.247677 37.121545 37.000323 36.884682 36.774028 36.668959 36.568875 36.474303 36.384641 36.300344 36.220810 36.146423 36.076588 36.011614 35.950919 35.894741 35.842512 35.794399 35.749855 35.708979 35.671247 35.636690 35.604813 35.575584 35.548538 35.523583 35.500288 35.478503 35.457835 35.438080 35.418887 35.400000
35.777778 35.805858 35.834281 35.863334 35.893412 35.924743 35.957769 35.992654 36.029885 36.069559 36.112202 36.157842 36.207038 36.259746 36.316555 36.377345 36.442732 36.512517 36.587336 36.666911 36.751893 36.841923 36.937662 37.038670 37.145613 37.257969 37.376404 37.500312 37.630358 37.765855 37.907459 38.054401 38.207328 38.365393 38.529227 38.697911 38.872057 39.050676 39.234360 39.422058 39.614340 39.810097 40.009876 40.212520 40.418555 40.626782 40.837705 41.050096 41.264438 41.479483 41.695696 41.911821 42.128306 42.343898 42.559032 42.772468 42.984633 43.194311 43.401918 43.606278 43.807798 44.005349 44.199332 44.388673 44.573767 44.753603 44.928569 45.097724 45.261447 45.418870 45.570363 45.715133 45.853536 45.984860 46.109440 46.226647 46.336791 46.439324 46.534527 46.621935 46.701795 46.773719 46.837919 46.894086 46.942388 46.982595 47.014830 47.038939 47.054996 47.062926 47.062751 47.054472 47.038063 47.013599 46.981004 46.940430 46.891753 46.835201 46.770607 46.698275 46.617994 46.530151 46.434495 46.331493 46.220862 46.103147 45.978039 45.846164 45.707188 45.561820 45.409706 45.251636 45.087239 44.917384 44.741690 44.561099 44.375222 44.185071 43.990249 43.791832 43.589418 43.384138 43.175584 42.964935 42.751774 42.537318 42.321144 42.104492 41.886928 41.669710 41.452388 41.236226 41.020757 40.807236 40.595180 40.385824 40.178665 39.974910 39.774032 39.577199 39.383865 39.195147 39.010476 38.830916 38.655876 38.486356 38.321745 38.162976 38.009419 37.861934 37.719878 37.584033 37.453745 37.329716 37.211284 37.099072 36.992413 36.891849 36.796712 36.707464 36.623442 36.545025 36.471561 36.403350 36.339752 36.280989 36.226439 36.176249 36.129821 36.087225 36.047891 36.011819 35.978470 35.947775 35.919232 35.892706 35.867735 35.844120 35.821447 35.799455 35.777778
36.155556 36.187330 36.219455 36.252338 36.286266 36.321703 36.358868 36.398273 36.440068 36.484809 36.532572 36.583954 36.638950 36.698194 36.761600 36.829831 36.902718 36.980948 37.064265 37.153376 37.247936 37.348666 37.455131 37.568061 37.686930 37.812470 37.944064 38.082443 38.226900 38.378158 38.535419 38.699398 38.869208 39.045548 39.227449 39.415589 39.608921 39.808101 40.012006 40.221271 40.434706 40.652919 40.874661 41.100516 41.329184 41.561224 41.795297 42.031938 42.269780 42.509337 42.749225 42.989938 43.230091 43.470161 43.708772 43.946388 44.181655 44.415027 44.645186 44.872576 45.095927 45.315676 45.530610 45.741160 45.946180 46.146094 46.339831 46.527809 46.709033 46.883914 47.051542 47.212311 47.365402 47.511191 47.648946 47.779021 47.900775 48.014532 48.119739 48.216690 48.304918 48.384677 48.455589 48.517862 48.571205 48.615777 48.651371 48.678096 48.695826 48.704617 48.704425 48.695252 48.677136 48.650021 48.614032 48.569057 48.515303 48.452608 48.381263 48.301057 48.212367 48.114939 48.009235 47.894963 47.772674 47.642041 47.503706 47.357313 47.203592 47.042166 46.873855 46.698263 46.516299 46.327552 46.133015 45.932271 45.726390 45.514949 45.299094 45.078392 44.854059 44.625657 44.394457 44.160017 43.923654 43.684918 43.445163 43.203928 42.962589 42.720673 42.479568 42.238782 41.999703 41.761819 41.526502 41.293221 41.063320 40.836243 40.613297 40.393901 40.179313 39.968927 39.763943 39.563729 39.369421 39.180363 38.997616 38.820504 38.650010 38.485438 38.327690 38.176053 38.031344 37.892837 37.761261 37.635885 37.517346 37.404912 37.299130 37.199269 37.105787 37.017961 36.936160 36.859673 36.788783 36.722796 36.661908 36.605450 36.553535 36.505520 36.461438 36.420680 36.383202 36.348431 36.316248 36.286124 36.257870 36.231001 36.205262 36.180220 36.155556
36.533333 36.569032 36.605147 36.642031 36.680163 36.719822 36.761544 36.805535 36.852381 36.902207 36.955648 37.012745 37.074173 37.139887 37.210596 37.286165 37.367333 37.453873 37.546546 37.645029 37.750103 37.861346 37.979549 38.104193 38.236077 38.374579 38.520497 38.673113 38.833219 38.999996 39.174226 39.354993 39.543066 39.737432 39.938841 40.146191 40.360208 40.579706 40.805383 41.035977 41.272159 41.512597 41.757931 42.006770 42.259725 42.515357 42.774249 43.034924 43.297939 43.561792 43.827018 44.092105 44.357568 44.621899 44.885595 45.147167 45.407101 45.663938 45.918154 46.168338 46.414958 46.656659 46.893905 47.125409 47.351632 47.571363 47.785057 47.991590 48.191407 48.383476 48.568230 48.744733 48.913402 49.073397 49.225115 49.367813 49.501862 49.626616 49.742412 49.848701 49.945782 50.033201 50.111210 50.179449 50.238120 50.286954 50.326099 50.355376 50.374875 50.384505 50.384297 50.374250 50.354332 50.324632 50.285057 50.235785 50.176667 50.107970 50.029489 49.941584 49.844001 49.737191 49.620855 49.495541 49.360909 49.217604 49.065254 48.904601 48.735246 48.558028 48.372529 48.179686 47.979062 47.771691 47.557125 47.336489 47.109329 46.876853 46.638601 46.395862 46.148171 45.896885 45.641533 45.383532 45.122404 44.859610 44.594666 44.329065 44.062309 43.795912 43.529358 43.264166 42.999802 42.737774 42.477526 42.220543 41.966243 41.716075 41.469429 41.227705 40.990267 40.758456 40.531604 40.310986 40.095906 39.887563 39.685234 39.490036 39.301222 39.119819 38.945063 38.777887 38.617511 38.464773 38.318881 38.180576 38.049062 37.924979 37.807531 37.697261 37.593375 37.496322 37.405316 37.320711 37.241736 37.168651 37.100709 37.038074 36.980029 36.926650 36.877250 36.831820 36.789711 36.750831 36.714576 36.680775 36.648869 36.618615 36.589506 36.561228 36.533333
36.911111 36.951011 36.991332 37.032564 37.075052 37.119350 37.165726 37.214792 37.266731 37.322208 37.381320 37.444776 37.512582 37.585489 37.663405 37.747118 37.836435 37.932173 38.034037 38.142865 38.258258 38.381070 38.510794 38.648294 38.792955 38.945643 39.105635 39.273792 39.449286 39.632966 39.823898 40.022915 40.228980 40.442906 40.663553 40.891713 41.126149 41.367624 41.614813 41.868449 42.127125 42.391542 42.660223 42.933834 43.210840 43.491874 43.775352 44.061880 44.349839 44.639806 44.930143 45.221405 45.511950 45.802311 46.090861 46.378116 46.662477 46.944449 47.222475 47.497054 47.766684 48.031859 48.291148 48.545041 48.792187 49.033071 49.266435 49.492756 49.710873 49.921257 50.122846 50.316098 50.500058 50.675164 50.840568 50.996683 51.142766 51.279200 51.405347 51.521550 51.627275 51.722821 51.807753 51.882318 51.946182 51.999535 52.042138 52.074121 52.095341 52.105863 52.105639 52.094668 52.072995 52.040555 51.997488 51.943663 51.879316 51.804255 51.718814 51.622744 51.516476 51.399711 51.272981 51.135941 50.989228 50.832456 50.666370 50.490551 50.305850 50.111825 49.909431 49.698208 49.479219 49.251989 49.017683 48.775819 48.527658 48.272713 48.012336 47.746037 47.475248 47.199474 46.920220 46.636986 46.351333 46.062755 45.772855 45.481117 45.189174 44.896493 44.604719 44.313302 44.023885 43.735891 43.450947 43.168450 42.889992 42.614942 42.344845 42.079037 41.819005 41.564053 41.315599 41.072913 40.837334 40.608103 40.386469 40.171646 39.964791 39.765091 39.573604 39.389498 39.213729 39.045447 38.885503 38.733039 38.588800 38.451921 38.323041 38.201296 38.087220 37.979956 37.879933 37.786309 37.699407 37.618407 37.543531 37.473984 37.409893 37.350491 37.295813 37.245130 37.198384 37.154891 37.114506 37.076595 37.040927 37.006924 36.974277 36.942467 36.911111
37.288889 37.333254 37.378114 37.423887 37.471140 37.520209 37.571725 37.625936 37.683535 37.744678 37.810109 37.879888 37.954806 38.034822 38.120768 38.212497 38.310875 38.415646 38.527702 38.646677 38.773482 38.907637 39.050066 39.200172 39.358885 39.525492 39.700921 39.884341 40.076673 40.276969 40.486136 40.703113 40.928784 41.161979 41.403555 41.652237 41.908852 42.172022 42.442544 42.718947 43.001991 43.290123 43.584065 43.882194 44.185194 44.491383 44.801412 45.113552 45.428422 45.744265 46.061671 46.378869 46.696427 47.012580 47.327873 47.640565 47.951189 48.258041 48.561644 48.860350 49.154676 49.443045 49.725971 50.001958 50.271519 50.533253 50.787668 51.033466 51.271151 51.499532 51.719105 51.928791 52.129071 52.318980 52.498978 52.668216 52.827123 52.974964 53.112132 53.238004 53.352927 53.456389 53.548684 53.629406 53.698791 53.756537 53.802817 53.837430 53.860480 53.871868 53.871627 53.859758 53.836222 53.801119 53.754342 53.696089 53.626186 53.544933 53.452092 53.348067 53.232560 53.106085 52.968291 52.819799 52.660215 52.490273 52.309541 52.118867 51.917790 51.707273 51.486834 51.257551 51.018927 50.772153 50.516723 50.253937 49.983283 49.706164 49.422067 49.132489 48.836914 48.536923 48.231998 47.923789 47.611773 47.297658 46.980911 46.663278 46.344214 46.025489 45.706537 45.389135 45.072694 44.758980 44.447373 44.139613 43.835050 43.535377 43.239911 42.950287 42.665786 42.387973 42.116092 41.851626 41.593784 41.343959 41.101326 40.867178 40.640661 40.422965 40.213207 40.012470 39.819850 39.636317 39.460951 39.294609 39.136363 38.986953 38.845448 38.712474 38.587104 38.469850 38.359797 38.257343 38.161591 38.072829 37.990185 37.913840 37.842952 37.777600 37.716977 37.661064 37.609097 37.560961 37.515943 37.473834 37.433977 37.396078 37.359541 37.323987 37.288889
37.666667 37.715812 37.765453 37.816163 37.868351 37.922666 37.979425 38.039344 38.102644 38.170101 38.241835 38.318675 38.400637 38.488593 38.582451 38.683122 38.790399 38.905225 39.027275 39.157516 39.295502 39.442217 39.597092 39.761119 39.933604 40.115542 40.306111 40.506300 40.715163 40.933675 41.160766 41.397389 41.642354 41.896589 42.158785 42.429838 42.708328 42.995115 43.288675 43.589829 43.896956 44.210837 44.529768 44.854488 45.183221 45.516666 45.852990 46.192856 46.534389 46.878218 47.222446 47.567673 47.911998 48.255996 48.597782 48.937914 49.274540 49.608207 49.937113 50.261800 50.580535 50.893856 51.200116 51.499850 51.791508 52.075628 52.350765 52.617454 52.874368 53.122036 53.359251 53.586530 53.802791 54.008533 54.202797 54.386058 54.557478 54.717500 54.865406 55.001594 55.125467 55.237370 55.336820 55.424103 55.498848 55.561275 55.611121 55.648535 55.673360 55.685671 55.685414 55.672590 55.647248 55.609310 55.558934 55.495966 55.420669 55.332819 55.232786 55.120282 54.995788 54.858954 54.710380 54.549663 54.377520 54.193506 53.998457 53.791897 53.574784 53.346616 53.108475 52.859843 52.601925 52.334190 52.057968 51.772721 51.479893 51.178948 50.871435 50.556819 50.236748 49.910684 49.580362 49.245242 48.907126 48.565469 48.222128 47.876544 47.530607 47.183745 46.837863 46.492364 46.149152 45.807599 45.469589 45.134462 44.804059 44.477686 44.157129 43.841651 43.532971 43.230310 42.935303 42.647132 42.367339 42.095065 41.831750 41.576501 41.330645 41.093258 40.865554 40.646579 40.437429 40.237130 40.046653 39.865013 39.693057 39.529791 39.375940 39.230509 39.094099 38.965724 38.845864 38.733546 38.629131 38.531668 38.441404 38.357414 38.279834 38.207775 38.141263 38.079453 38.022266 37.968907 37.919196 37.872395 37.828227 37.786018 37.745400 37.705767 37.666667