<?xml version="1.0"?>
<VTKFile type="ImageData" version="0.1" byte_order="LittleEndian">
  <ImageData WholeExtent="0 180 0 180 0 0" Origin="0.0 0.0 0.0" Spacing="0.05 0.05 1">
    <Piece Extent="0 180 0 180 0 0">
      <PointData Scalars="Temperature">
        <DataArray type="Float32" Name="Temperature" format="ascii">
32.000000 32.000000 32.000000 32.000000 32.000000 32.000000 32.000000 32.000000 32.000000 32.000000 32.000000 32.000000 32.000000 32.000000 32.000000 32.000000 32.000000 32.000000 32.000000 32.000000 32.000000 32.000000 32.000000 32.000000 32.000000 32.000000 32.000000 32.000000 32.000000 32.000000 32.000000 32.000000 32.000000 32.000000 32.000000 32.000000 32.000000 32.000000 32.000000 32.000000 32.000000 32.000000 32.000000 32.000000 32.000000 32.000000 32.000000 32.000000 32.000000 32.000000 32.000000 32.000000 32.000000 32.000000 32.000000 32.000000 32.000000 32.000000 32.000000 32.000000 32.000000 32.000000 32.000000 32.000000 32.000000 32.000000 32.000000 32.000000 32.000000 32.000000 32.000000 32.000000 32.000000 32.000000 32.000000 32.000000 32.000000 32.000000 32.000000 32.000000 32.000000 32.000000 32.000000 32.000000 32.000000 32.000000 32.000000 32.000000 32.000000 32.000000 32.000000 32.000000 32.000000 32.000000 32.000000 32.000000 32.000000 32.000000 32.000000 32.000000 32.000000 32.000000 32.000000 32.000000 32.000000 32.000000 32.000000 32.000000 32.000000 32.000000 32.000000 32.000000 32.000000 32.000000 32.000000 32.000000 32.000000 32.000000 32.000000 32.000000 32.000000 32.000000 32.000000 32.000000 32.000000 32.000000 32.000000 32.000000 32.000000 32.000000 32.000000 32.000000 32.000000 32.000000 32.000000 32.000000 32.000000 32.000000 32.000000 32.000000 32.000000 32.000000 32.000000 32.000000 32.000000 32.000000 32.000000 32.000000 32.000000 32.000000 32.000000 32.000000 32.000000 32.000000 32.000000 32.000000 32.000000 32.000000 32.000000 32.000000 32.000000 32.000000 32.000000 32.000000 32.000000 32.000000 32.000000 32.000000 32.000000 32.000000 32.000000 32.000000 32.000000 32.000000 32.000000 32.000000 32.000000 32.000000 32.000000 32.000000 32.000000
32.377778 32.409354 32.440934 32.472519 32.504113 32.535719 32.567338 32.598974 32.630628 32.662303 32.694000 32.725722 32.757467 32.789239 32.821035 32.852858 32.884705 32.916577 32.948470 32.980384 33.012315 33.044260 33.076214 33.108174 33.140133 33.172086 33.204025 33.235943 33.267831 33.299682 33.331483 33.363226 33.394897 33.426485 33.457977 33.489359 33.520615 33.551732 33.582691 33.613478 33.644073 33.674461 33.704620 33.734532 33.764178 33.793537 33.822589 33.851314 33.879689 33.907694 33.935308 33.962509 33.989276 34.015590 34.041426 34.066768 34.091592 34.115880 34.139613 34.162772 34.185338 34.207296 34.228626 34.249314 34.269344 34.288703 34.307375 34.325349 34.342613 34.359155 34.374966 34.390035 34.404355 34.417917 34.430713 34.442739 34.453987 34.464454 34.474133 34.483022 34.491117 34.498414 34.504912 34.510608 34.515500 34.519587 34.522868 34.525342 34.527008 34.527866 34.527916 34.527157 34.525591 34.523218 34.520039 34.516055 34.511267 34.505676 34.499286 34.492098 34.484115 34.475340 34.465778 34.455431 34.444306 34.432407 34.419740 34.406312 34.392131 34.377204 34.361541 34.345150 34.328043 34.310230 34.291725 34.272539 34.252688 34.232184 34.211044 34.189284 34.166920 34.143971 34.120455 34.096390 34.071796 34.046693 34.021101 33.995041 33.968534 33.941600 33.914263 33.886542 33.858459 33.830035 33.801293 33.772251 33.742932 33.713354 33.683539 33.653504 33.623270 33.592854 33.562274 33.531546 33.500688 33.469713 33.438639 33.407476 33.376241 33.344943 33.313596 33.282210 33.250795 33.219359 33.187913 33.156461 33.125014 33.093574 33.062150 33.030744 32.999361 32.968004 32.936677 32.905380 32.874116 32.842885 32.811689 32.780526 32.749396 32.718299 32.687233 32.656196 32.625187 32.594203 32.563242 32.532300 32.501375 32.470464 32.439563 32.408668 32.377778
32.755556 32.818710 32.881870 32.945041 33.008231 33.071442 33.134683 33.197956 33.261266 33.324618 33.388015 33.451459 33.514954 33.578499 33.642097 33.705746 33.769446 33.833193 33.896986 33.960819 34.024688 34.088584 34.152501 34.216427 34.280355 34.344269 34.408158 34.472004 34.535794 34.599505 34.663122 34.726619 34.789977 34.853168 34.916168 34.978947 35.041478 35.103728 35.165666 35.227257 35.288469 35.349262 35.409601 35.469446 35.528760 35.587498 35.645625 35.703094 35.759867 35.815898 35.871149 35.925572 35.979129 36.031775 36.083471 36.134172 36.183842 36.232437 36.279922 36.326257 36.371409 36.415338 36.458016 36.499406 36.539482 36.578211 36.615570 36.651529 36.686068 36.719162 36.750793 36.780940 36.809587 36.836717 36.862318 36.886374 36.908876 36.929813 36.949176 36.966957 36.983149 36.997746 37.010744 37.022137 37.031923 37.040098 37.046661 37.051609 37.054941 37.056657 37.056757 37.055240 37.052108 37.047361 37.041002 37.033032 37.023454 37.012271 36.999488 36.985110 36.969141 36.951588 36.932459 36.911762 36.889506 36.865703 36.840362 36.813500 36.785129 36.755268 36.723930 36.691140 36.656914 36.621278 36.584254 36.545870 36.506151 36.465129 36.422832 36.379296 36.334551 36.288636 36.241583 36.193435 36.144226 36.094000 36.042795 35.990655 35.937618 35.883731 35.829033 35.773570 35.717382 35.660514 35.603006 35.544902 35.486241 35.427066 35.367414 35.307326 35.246838 35.185988 35.124808 35.063337 35.001602 34.939638 34.877471 34.815133 34.752646 34.690039 34.627331 34.564547 34.501704 34.438824 34.375919 34.313009 34.250103 34.187218 34.124360 34.061542 33.998770 33.936051 33.873390 33.810792 33.748259 33.685794 33.623397 33.561068 33.498806 33.436610 33.374475 33.312401 33.250381 33.188412 33.126487 33.064603 33.002752 32.940929 32.879126 32.817337 32.755556
33.133333 33.228067 33.322809 33.417569 33.512355 33.607177 33.702040 33.796954 33.891923 33.986956 34.082057 34.177230 34.272478 34.367805 34.463210 34.558694 34.654253 34.749888 34.845590 34.941355 35.037172 35.133035 35.228928 35.324840 35.420752 35.516649 35.612505 35.708304 35.804015 35.899615 35.995070 36.090352 36.185423 36.280248 36.374785 36.468997 36.562834 36.656254 36.749206 36.841642 36.933505 37.024746 37.115304 37.205125 37.294145 37.382309 37.469550 37.555811 37.641022 37.725126 37.808053 37.889745 37.970132 38.049156 38.126749 38.202854 38.277406 38.350350 38.421622 38.491172 38.558941 38.624879 38.688933 38.751058 38.811206 38.869335 38.925402 38.979373 39.031207 39.080875 39.128342 39.173585 39.216574 39.257287 39.295702 39.331802 39.365567 39.396983 39.426037 39.452717 39.477012 39.498914 39.518415 39.535510 39.550192 39.562457 39.572303 39.579727 39.584726 39.587301 39.587450 39.585174 39.580475 39.573353 39.563811 39.551853 39.537482 39.520704 39.501525 39.479950 39.455990 39.429652 39.400949 39.369891 39.336496 39.300775 39.262750 39.222438 39.179864 39.135048 39.088021 39.038808 38.987444 38.933958 38.878392 38.820781 38.761168 38.699596 38.636113 38.570764 38.503605 38.434684 38.364061 38.291787 38.217927 38.142535 38.065677 37.987412 37.907806 37.826919 37.744820 37.661569 37.577234 37.491876 37.405562 37.318351 37.230309 37.141492 37.051966 36.961782 36.871004 36.779679 36.687867 36.595613 36.502971 36.409981 36.316695 36.223147 36.129384 36.035437 35.941345 35.847137 35.752846 35.658496 35.564116 35.469725 35.375347 35.280996 35.186693 35.092447 34.998274 34.904179 34.810176 34.716266 34.622457 34.528749 34.435145 34.341644 34.248245 34.154944 34.061738 33.968621 33.875587 33.782630 33.689741 33.596912 33.504134 33.411397 33.318692 33.226007 33.133333
33.511111 33.637426 33.763754 33.890105 34.016492 34.142925 34.269416 34.395974 34.522609 34.649328 34.776139 34.903048 35.030060 35.157175 35.284400 35.411729 35.539164 35.666697 35.794326 35.922039 36.049827 36.177675 36.305570 36.433488 36.561414 36.689317 36.817176 36.944955 37.072626 37.200147 37.327484 37.454587 37.581417 37.707918 37.834044 37.959732 38.084931 38.209571 38.333594 38.456927 38.579505 38.701249 38.822091 38.941945 39.060741 39.178389 39.294815 39.409926 39.523647 39.635884 39.746558 39.855578 39.962864 40.068324 40.171882 40.273448 40.372947 40.470292 40.565413 40.658228 40.748670 40.836663 40.922146 41.005048 41.085313 41.162879 41.237697 41.309710 41.378875 41.445143 41.508479 41.568840 41.626196 41.680511 41.731762 41.779919 41.824963 41.866870 41.905627 41.941214 41.973622 42.002835 42.028846 42.051646 42.071229 42.087588 42.100720 42.110620 42.117288 42.120722 42.120920 42.117885 42.111616 42.102117 42.089390 42.073441 42.054273 42.031894 42.006311 41.977534 41.945572 41.910440 41.872150 41.830721 41.786168 41.738517 41.687786 41.634006 41.577201 41.517410 41.454661 41.388999 41.320459 41.249093 41.174943 41.098067 41.018515 40.936349 40.851628 40.764421 40.674791 40.582815 40.488559 40.392107 40.293530 40.192916 40.090338 39.985888 39.879643 39.771697 39.662126 39.551026 39.438475 39.324566 39.209377 39.092999 38.975508 38.856993 38.737526 38.617192 38.496060 38.374210 38.251705 38.128621 38.005015 37.880956 37.756497 37.631701 37.506613 37.381290 37.255771 37.130107 37.004329 36.878482 36.752592 36.626696 36.500815 36.374979 36.249203 36.123512 35.997916 35.872432 35.747068 35.621834 35.496734 35.371773 35.246951 35.122270 34.997724 34.873312 34.749027 34.624864 34.500812 34.376863 34.253006 34.129230 34.005522 33.881870 33.758260 33.634679 33.511111
33.888889 34.046789 34.204705 34.362651 34.520642 34.678693 34.836815 34.995025 35.153330 35.311744 35.470273 35.628929 35.787713 35.946633 36.105687 36.264880 36.424204 36.583660 36.743234 36.902920 37.062701 37.222566 37.382488 37.542450 37.702420 37.862373 38.022269 38.182077 38.341749 38.501245 38.660508 38.819493 38.978134 39.136376 39.294147 39.451384 39.608006 39.763943 39.919105 40.073417 40.226780 40.379114 40.530314 40.680292 40.828941 40.976166 41.121855 41.265912 41.408222 41.548687 41.687189 41.823631 41.957895 42.089884 42.219484 42.346599 42.471118 42.592950 42.711989 42.828147 42.941327 43.051448 43.158417 43.262161 43.362597 43.459659 43.553272 43.643379 43.729914 43.812828 43.892064 43.967580 44.039329 44.107278 44.171385 44.231624 44.287964 44.340382 44.388855 44.433365 44.473893 44.510429 44.542957 44.571470 44.595957 44.616415 44.632835 44.645215 44.653552 44.657845 44.658093 44.654296 44.646457 44.634578 44.618663 44.598717 44.574747 44.546759 44.514765 44.478774 44.438802 44.394860 44.346971 44.295149 44.239423 44.179814 44.116356 44.049076 43.978016 43.903210 43.824707 43.742550 43.656797 43.567497 43.474719 43.378519 43.278974 43.176150 43.070132 42.960994 42.848828 42.733717 42.615760 42.495045 42.371678 42.245751 42.117377 41.986651 41.853688 41.718587 41.581465 41.442421 41.301573 41.159019 41.014875 40.869237 40.722220 40.573916 40.424434 40.273864 40.122307 39.969849 39.816585 39.662593 39.507962 39.352762 39.197075 39.040963 38.884500 38.727740 38.570750 38.413574 38.256270 38.098876 37.941442 37.783998 37.626584 37.469225 37.311953 37.154784 36.997744 36.840844 36.684101 36.527521 36.371116 36.214885 36.058833 35.902957 35.747257 35.591724 35.436354 35.281135 35.126061 34.971114 34.816286 34.661559 34.506919 34.352349 34.197833 34.043352 33.888889
34.266667 34.456156 34.645664 34.835209 35.024810 35.214482 35.404244 35.594110 35.784095 35.974211 36.164472 36.354883 36.545456 36.736192 36.927098 37.118170 37.309409 37.500805 37.692355 37.884040 38.075850 38.267760 38.459753 38.651793 38.843857 39.035900 39.227891 39.419774 39.611510 39.803035 39.994297 40.185224 40.375754 40.565806 40.755308 40.944168 41.132307 41.319620 41.506021 41.691398 41.875653 42.058668 42.240337 42.420535 42.599150 42.776051 42.951122 43.124225 43.295244 43.464037 43.630486 43.794450 43.955810 44.114426 44.270181 44.422940 44.572588 44.718996 44.862054 45.001641 45.137654 45.269979 45.398521 45.523177 45.643861 45.760480 45.872958 45.981212 46.085177 46.184780 46.279967 46.370676 46.456862 46.538472 46.615471 46.687816 46.755478 46.818425 46.876634 46.930079 46.978745 47.022612 47.061668 47.095900 47.125301 47.149860 47.169573 47.184435 47.194444 47.199596 47.199893 47.195334 47.185922 47.171660 47.152552 47.128604 47.099823 47.066220 47.027804 46.984589 46.936589 46.883825 46.826313 46.764082 46.697155 46.625565 46.549344 46.468535 46.383175 46.293318 46.199009 46.100314 45.997286 45.890000 45.778522 45.662937 45.543321 45.419769 45.292367 45.161221 45.026425 44.888095 44.746334 44.601265 44.452999 44.301666 44.147381 43.990280 43.830482 43.668127 43.503334 43.336246 43.166981 42.995681 42.822464 42.647469 42.470810 42.292622 42.113014 41.932115 41.750029 41.566876 41.382753 41.197773 41.012023 40.825609 40.638607 40.451112 40.263195 40.074939 39.886404 39.697663 39.508768 39.319783 39.130746 38.941715 38.752718 38.563802 38.374989 38.186315 37.997794 37.809455 37.621303 37.433358 37.245622 37.058106 36.870804 36.683723 36.496851 36.310189 36.123722 35.937443 35.751335 35.565388 35.379581 35.193901 35.008324 34.822834 34.637409 34.452027 34.266667
34.644444 34.865527 35.086632 35.307782 35.528996 35.750297 35.971703 36.193236 36.414908 36.636739 36.858740 37.080925 37.303299 37.525873 37.748646 37.971624 38.194799 38.418170 38.641721 38.865444 39.089315 39.313318 39.537418 39.761592 39.985795 40.209993 40.434129 40.658162 40.882022 41.105656 41.328985 41.551944 41.774442 41.996401 42.217720 42.438311 42.658059 42.876866 43.094606 43.311171 43.526425 43.740251 43.952503 44.163056 44.371757 44.578473 44.783046 44.985338 45.185187 45.382453 45.576971 45.768599 45.957174 46.142556 46.324584 46.503120 46.678009 46.849121 47.016305 47.179438 47.338381 47.493020 47.643224 47.788891 47.929902 48.066165 48.197577 48.324054 48.445507 48.561867 48.673053 48.779010 48.879671 48.974989 49.064910 49.149397 49.228407 49.301910 49.369874 49.432276 49.489092 49.540306 49.585899 49.625861 49.660180 49.688848 49.711858 49.729205 49.740886 49.746900 49.747245 49.741923 49.730935 49.714286 49.691980 49.664023 49.630426 49.591195 49.546347 49.495892 49.439851 49.378242 49.311090 49.238420 49.160266 49.076659 48.987644 48.893258 48.793559 48.688594 48.578432 48.463130 48.342769 48.217419 48.087174 47.952115 47.812349 47.667969 47.519095 47.365830 47.208306 47.046638 46.880967 46.711418 46.538141 46.361267 46.180955 45.997340 45.810587 45.620834 45.428249 45.232971 45.035168 44.834980 44.632570 44.428076 44.221659 44.013450 43.803604 43.592246 43.379522 43.165551 42.950469 42.734384 42.517424 42.299685 42.081284 41.862307 41.642859 41.423016 41.202869 40.982482 40.761937 40.541285 40.320597 40.099912 39.879290 39.658760 39.438371 39.218142 38.998112 38.778291 38.558706 38.339363 38.120277 37.901448 37.682882 37.464573 37.246520 37.028710 36.811138 36.593786 36.376641 36.159683 35.942896 35.726255 35.509740 35.293326 35.076989 34.860704 34.644444
35.022222 35.274903 35.527610 35.780367 36.033203 36.286138 36.539198 36.792403 37.045776 37.299331 37.553089 37.807058 38.061256 38.315684 38.570353 38.825258 39.080403 39.335775 39.591369 39.847163 40.103146 40.359281 40.615550 40.871905 41.128315 41.384723 41.641085 41.897331 42.153405 42.409224 42.664721 42.919796 43.174371 43.428333 43.681590 43.934015 44.185504 44.435917 44.685137 44.933013 45.179415 45.424182 45.667172 45.908216 46.147163 46.383835 46.618076 46.849701 47.078549 47.304431 47.527185 47.746621 47.962577 48.174865 48.383325 48.587774 48.788057 48.983999 49.175453 49.362253 49.544260 49.721321 49.893310 50.060085 50.221533 50.377527 50.527968 50.672743 50.811768 50.944944 51.072201 51.193457 51.308651 51.417718 51.520608 51.617268 51.707662 51.791746 51.869492 51.940868 52.005855 52.064428 52.116573 52.162273 52.201519 52.234301 52.260613 52.280448 52.293804 52.300679 52.301072 52.294985 52.282419 52.263379 52.237869 52.205898 52.167472 52.122606 52.071310 52.013602 51.949499 51.879026 51.802206 51.719072 51.629654 51.533997 51.432139 51.324138 51.210040 51.089917 50.963828 50.831858 50.694080 50.550592 50.401482 50.246864 50.086838 49.921532 49.751062 49.575570 49.395183 49.210058 49.020333 48.826175 48.627733 48.425183 48.218682 48.008414 47.794539 47.577247 47.356701 47.133091 46.906581 46.677361 46.445592 46.211460 45.975121 45.736757 45.496515 45.254570 45.011060 44.766149 44.519966 44.272664 44.024360 43.775195 43.525273 43.274720 43.023630 42.772116 42.520256 42.268150 42.015863 41.763483 41.511061 41.258669 41.006350 40.754162 40.502135 40.250315 39.998721 39.747389 39.496328 39.245562 38.995091 38.744930 38.495071 38.245520 37.996264 37.747298 37.498603 37.250171 37.001977 36.754004 36.506227 36.258623 36.011164 35.763824 35.516573 35.269383 35.022222
35.400000 35.684283 35.968596 36.252968 36.537428 36.822006 37.106726 37.391616 37.676696 37.961992 38.247518 38.533295 38.819331 39.105642 39.392226 39.679093 39.966234 40.253651 40.541321 40.829239 41.117373 41.405704 41.694189 41.982799 42.271475 42.560178 42.848834 43.137389 43.425757 43.713870 44.001623 44.288936 44.575690 44.861788 45.147095 45.431501 45.714854 45.997030 46.277865 46.557218 46.834912 47.110795 47.384676 47.656394 47.925747 48.192564 48.456636 48.717785 48.975797 49.230489 49.481646 49.729081 49.972581 50.211963 50.447014 50.677557 50.903386 51.124331 51.340197 51.550823 51.756026 51.955657 52.149548 52.337564 52.519554 52.695397 52.864958 53.028134 53.184807 53.334889 53.478280 53.614906 53.744686 53.867560 53.983460 54.092340 54.194148 54.288848 54.376399 54.456777 54.529949 54.595900 54.654607 54.706058 54.750239 54.787143 54.816760 54.839088 54.854121 54.861858 54.862298 54.855443 54.841296 54.819860 54.791142 54.755146 54.711886 54.661370 54.603615 54.538634 54.466452 54.387088 54.300575 54.206941 54.106228 53.998474 53.883733 53.762054 53.633506 53.498151 53.356072 53.207345 53.052073 52.890344 52.722278 52.547980 52.367589 52.181224 51.989039 51.791172 51.587791 51.379048 51.165125 50.946187 50.722428 50.494022 50.261174 50.024064 49.782904 49.537880 49.289207 49.037071 48.781689 48.523245 48.261953 47.997993 47.731575 47.462871 47.192082 46.919372 46.644932 46.368914 46.091497 45.812821 45.533051 45.252313 44.970757 44.688495 44.405663 44.122355 43.838693 43.554758 43.270653 42.986445 42.702223 42.418039 42.133966 41.850045 41.566333 41.282857 40.999663 40.716766 40.434198 40.151964 39.870084 39.588555 39.307386 39.026565 38.746091 38.465947 38.186122 37.906593 37.627344 37.348346 37.069576 36.791002 36.512597 36.234327 35.956161 35.678063 35.400000
35.777778 36.093667 36.409591 36.725582 37.041675 37.357899 37.674290 37.990871 38.307675 38.624720 38.942035 39.259633 39.577535 39.895745 40.214280 40.533135 40.852316 41.171808 41.491609 41.811690 42.132040 42.452615 42.773393 43.094316 43.415348 43.736415 44.057467 44.378414 44.699191 45.019691 45.339831 45.659490 45.978566 46.296920 46.614435 46.930953 47.246342 47.560427 47.873059 48.184047 48.493226 48.800393 49.105370 49.407938 49.707908 50.005052 50.299173 50.590033 50.877429 51.161119 51.440897 51.716520 51.987780 52.254438 52.516290 52.773103 53.024679 53.270794 53.511260 53.745867 53.974440 54.196783 54.412735 54.622119 54.824792 55.020594 55.209400 55.391071 55.565499 55.732564 55.892178 56.044240 56.188677 56.325408 56.454376 56.575515 56.688782 56.794126 56.891517 56.980914 57.062298 57.135640 57.200926 57.258137 57.307264 57.348294 57.381223 57.406045 57.422757 57.431357 57.431844 57.424221 57.408489 57.384653 57.352718 57.312693 57.264585 57.208410 57.144177 57.071909 56.991622 56.903347 56.807107 56.702943 56.590889 56.470998 56.343315 56.207908 56.064836 55.914184 55.756025 55.590462 55.417587 55.237522 55.050375 54.856289 54.655389 54.447838 54.233779 54.013395 53.786845 53.554328 53.316019 53.072133 52.822857 52.568417 52.309012 52.044877 51.776217 51.503273 51.226254 50.945403 50.660929 50.373073 50.082042 49.788072 49.491363 49.192143 48.890603 48.586962 48.281397 47.974115 47.665280 47.355085 47.043677 46.731234 46.417887 46.103796 45.789076 45.473870 45.158275 44.842417 44.526377 44.210261 43.894136 43.578091 43.262176 42.946463 42.630989 42.315811 42.000950 41.686450 41.372320 41.058589 40.745256 40.432337 40.119822 39.807715 39.495997 39.184663 38.873687 38.563056 38.252737 37.942709 37.632936 37.323391 37.014034 36.704834 36.395749 36.086744 35.777778
36.155556 36.503055 36.850593 37.198208 37.545937 37.893818 38.241883 38.590170 38.938703 39.287518 39.636633 39.986077 40.335861 40.686006 41.036513 41.387398 41.738649 42.090270 42.442239 42.794549 43.147162 43.500060 43.853189 44.206517 44.559974 44.913511 45.267042 45.620502 45.973784 46.326808 46.679447 47.031601 47.383127 47.733904 48.083768 48.432582 48.780163 49.126353 49.470951 49.813784 50.154632 50.493306 50.829570 51.163221 51.494010 51.821722 52.146099 52.466915 52.783906 53.096841 53.405451 53.709505 54.008734 54.302908 54.591764 54.875077 55.152592 55.424095 55.689344 55.948136 56.200245 56.445485 56.683649 56.914569 57.138057 57.353966 57.562131 57.762423 57.954701 58.138858 58.314773 58.482359 58.641516 58.792176 58.934259 59.067712 59.192473 59.308504 59.415758 59.514207 59.603818 59.684573 59.756448 59.819433 59.873511 59.918677 59.954921 59.982242 60.000634 60.010097 60.010630 60.002236 59.984917 59.958676 59.923521 59.879456 59.826494 59.764643 59.693921 59.614343 59.525934 59.428714 59.322722 59.207985 59.084554 58.952469 58.811795 58.662587 58.504929 58.338889 58.164572 57.982065 57.791492 57.592961 57.386619 57.172594 56.951054 56.722148 56.486066 56.242977 55.993091 55.736596 55.473721 55.204667 54.929680 54.648976 54.362812 54.071412 53.775042 53.473934 53.168358 52.858545 52.544768 52.227256 51.906278 51.582057 51.254855 50.924887 50.592403 50.257607 49.920736 49.581979 49.241558 48.899645 48.556445 48.212113 47.866834 47.520746 47.174014 46.826756 46.479118 46.131201 45.783129 45.434985 45.086875 44.738862 44.391034 44.043439 43.696146 43.349187 43.002614 42.656445 42.310717 41.965435 41.620622 41.276269 40.932388 40.588960 40.245985 39.903436 39.561301 39.219547 38.878155 38.537084 38.196308 37.855783 37.515476 37.175341 36.835339 36.495425 36.155556
36.533333 36.912445 37.291601 37.670842 38.050214 38.429754 38.809506 39.189502 39.569783 39.950375 40.331314 40.712617 41.094314 41.476413 41.858935 42.241876 42.625248 43.009034 43.393235 43.777819 44.162773 44.548050 44.933622 45.319425 45.705414 46.091505 46.477639 46.863709 47.249638 47.635300 48.020595 48.405377 48.789526 49.172874 49.555280 49.936554 50.316534 50.695011 51.071801 51.446674 51.819430 52.189819 52.557623 52.922576 53.284446 53.642954 53.997856 54.348863 54.695722 55.038138 55.375854 55.708575 56.036041 56.357961 56.674081 56.984115 57.287820 57.584919 57.875184 58.158354 58.434216 58.702530 58.963101 59.215712 59.460190 59.696341 59.924015 60.143045 60.353302 60.554645 60.746968 60.930153 61.104116 61.268763 61.424029 61.569839 61.706147 61.832894 61.950050 62.057571 62.155436 62.243616 62.322099 62.390864 62.449905 62.499210 62.538776 62.568596 62.588670 62.598997 62.599576 62.590409 62.571499 62.542850 62.504466 62.456357 62.398527 62.330993 62.253763 62.166860 62.070300 61.964116 61.848331 61.722989 61.588127 61.443805 61.290071 61.127004 60.954671 60.773169 60.582584 60.383037 60.174636 59.957526 59.731835 59.497736 59.255380 59.004963 58.746660 58.480691 58.207253 57.926586 57.638908 57.344479 57.043531 56.736342 56.423156 56.104262 55.779913 55.450406 55.115998 54.776989 54.433635 54.086233 53.735037 53.380338 53.022380 52.661445 52.297764 51.931606 51.563188 51.192762 50.820528 50.446719 50.071516 49.695132 49.317728 48.939496 48.560575 48.181136 47.801297 47.421207 47.040963 46.660692 46.280473 45.900410 45.520563 45.141016 44.761812 44.383016 44.004653 43.626772 43.249382 42.872515 42.496168 42.120357 41.745068 41.370304 40.996039 40.622264 40.248947 39.876067 39.503584 39.131470 38.759680 38.388177 38.016913 37.645846 37.274925 36.904105 36.533333
36.911111 37.321837 37.732611 38.143483 38.554498 38.965706 39.377146 39.788866 40.200899 40.613289 41.026062 41.439253 41.852879 42.266970 42.681529 43.096576 43.512102 43.928115 44.344590 44.761523 45.178873 45.596619 46.014703 46.433086 46.851690 47.270460 47.689294 48.108118 48.526809 48.945270 49.363354 49.780945 50.197870 50.613989 51.029107 51.443061 51.855631 52.266631 52.675820 53.082989 53.487875 53.890249 54.289829 54.686368 55.079567 55.469164 55.854847 56.236344 56.613331 56.985530 57.352613 57.714299 58.070262 58.420220 58.763855 59.100892 59.431023 59.753987 60.069490 60.377287 60.677105 60.968719 61.251880 61.526386 61.792013 62.048584 62.295905 62.533823 62.762173 62.980828 63.189650 63.388538 63.577378 63.756094 63.924595 64.082825 64.230716 64.368226 64.495308 64.611933 64.718068 64.813696 64.898794 64.973354 65.037362 65.090814 65.133702 65.166026 65.187783 65.198973 65.199597 65.189656 65.169153 65.138091 65.096476 65.044312 64.981610 64.908375 64.824628 64.730377 64.625650 64.510465 64.384862 64.248868 64.102538 63.945913 63.779066 63.602056 63.414976 63.217906 63.010962 62.794247 62.567904 62.332060 62.086886 61.832533 61.569201 61.297069 61.016362 60.727285 60.430090 60.125003 59.812299 59.492227 59.165080 58.831123 58.490666 58.143984 57.791398 57.433192 57.069692 56.701183 56.327992 55.950400 55.568732 55.183260 54.794300 54.402113 54.007000 53.609208 53.209022 52.806670 52.402418 51.996474 51.589080 51.180424 50.770725 50.360148 49.948888 49.537085 49.124913 48.712487 48.299957 47.887416 47.474990 47.062752 46.650804 46.239198 45.828016 45.417293 45.007087 44.597417 44.188324 43.779811 43.371900 42.964582 42.557865 42.151725 41.746158 41.341129 40.936622 40.532596 40.129021 39.725851 39.323048 38.920560 38.518344 38.116342 37.714507 37.312781 36.911111
37.288889 37.731228 38.173622 38.616123 39.058787 39.501661 39.944800 40.388245 40.832048 41.276242 41.720872 42.165963 42.611553 43.057655 43.504296 43.951477 44.399215 44.847493 45.296315 45.745649 46.195482 46.645762 47.096461 47.547506 47.998848 48.450393 48.902071 49.353764 49.805379 50.256774 50.707833 51.158386 51.608294 52.057359 52.505417 52.952246 53.397655 53.841394 54.283250 54.722949 55.160251 55.594862 56.026521 56.454912 56.879755 57.300719 57.717508 58.129778 58.537225 58.939493 59.336275 59.727212 60.111996 60.490273 60.861738 61.226048 61.582908 61.931989 62.273013 62.605671 62.929706 63.244832 63.550817 63.847404 64.134387 64.411539 64.678684 64.935627 65.182219 65.418296 65.643739 65.858415 66.062230 66.255078 66.436890 66.607585 66.767114 66.915418 67.052466 67.178214 67.292645 67.395730 67.487461 67.567820 67.636804 67.694404 67.740620 67.775447 67.798888 67.810941 67.811608 67.800892 67.778793 67.745316 67.700463 67.644242 67.576655 67.497716 67.407431 67.305821 67.192898 67.068695 66.933231 66.786553 66.628697 66.459724 66.279686 66.088669 65.886743 65.674019 65.450592 65.216599 64.972162 64.717449 64.452610 64.177843 63.893327 63.599292 63.295946 62.983549 62.662336 62.332594 61.994582 61.648612 61.294964 60.933969 60.565924 60.191174 59.810026 59.422835 59.029912 58.631616 58.228257 57.820192 57.407725 56.991205 56.570925 56.147221 55.720372 55.290697 54.858455 54.423944 53.987404 53.549110 53.109276 52.668153 52.225931 51.782834 51.339027 50.894708 50.450016 50.005122 49.560140 49.115216 48.670440 48.225931 47.781757 47.338015 46.894749 46.452035 46.009898 45.568390 45.127521 44.687325 44.247793 43.808942 43.370751 42.933219 42.496315 42.060024 41.624304 41.189127 40.754445 40.320221 39.886397 39.452929 39.019756 38.586827 38.154078 37.721453 37.288889
37.666667 38.140617 38.614627 39.088759 39.563068 40.037615 40.512451 40.987634 41.463207 41.939225 42.415721 42.892741 43.370309 43.848462 44.327209 44.806577 45.286559 45.767170 46.248385 46.730203 47.212579 47.695495 48.178886 48.662713 49.146887 49.631348 50.115983 50.600708 51.085382 51.569897 52.054085 52.537811 53.020878 53.503123 53.984322 54.464283 54.942752 55.419511 55.894278 56.366808 56.836792 57.303960 57.767980 58.228559 58.685344 59.138023 59.586226 60.029628 60.467847 60.900547 61.327341 61.747889 62.161805 62.568752 62.968349 63.360269 63.744144 64.119662 64.486474 64.844289 65.192784 65.531691 65.860717 66.179624 66.488152 66.786093 67.073221 67.349363 67.614327 67.867971 68.110139 68.340718 68.559584 68.766654 68.961832 69.145058 69.316263 69.475408 69.622443 69.757345 69.880083 69.990646 70.089014 70.175183 70.249144 70.310897 70.360439 70.397771 70.422894 70.435810 70.436521 70.425027 70.401332 70.365436 70.317345 70.257059 70.184586 70.099928 70.003101 69.894109 69.772978 69.639721 69.494374 69.336963 69.167542 68.986152 68.792868 68.587752 68.370902 68.142406 67.902393 67.650975 67.388314 67.114555 66.829892 66.534501 66.228612 65.912435 65.586232 65.250245 64.904770 64.550075 64.186487 63.814300 63.433864 63.045494 62.649560 62.246390 61.836368 61.419832 60.997172 60.568727 60.134887 59.695990 59.252418 58.804498 58.352604 57.897046 57.438180 56.976299 56.511737 56.044766 55.575695 55.104769 54.632273 54.158425 53.683480 53.207630 52.731100 52.254054 51.776688 51.299138 50.821573 50.344101 49.866863 49.389941 48.913450 48.437448 47.962025 47.487217 47.013090 46.539661 46.066973 45.595024 45.123840 44.653402 44.183717 43.714753 43.246501 42.778918 42.311980 41.845635 41.379847 40.914557 40.449718 39.985266 39.521146 39.057290 38.593636 38.130117 37.666667