<?xml version="1.0"?>
<VTKFile type="ImageData" version="0.1" byte_order="LittleEndian">
  <ImageData WholeExtent="0 180 0 180 0 0" Origin="0.0 0.0 0.0" Spacing="0.05 0.05 1">
    <Piece Extent="0 180 0 180 0 0">
      <PointData Scalars="Temperature">
        <DataArray type="Float32" Name="Temperature" format="ascii">
32.000000 32.000000 32.000000 32.000000 32.000000 32.000000 32.000000 32.000000 32.000000 32.000000 32.000000 32.000000 32.000000 32.000000 32.000000 32.000000 32.000000 32.000000 32.000000 32.000000 32.000000 32.000000 32.000000 32.000000 32.000000 32.000000 32.000000 32.000000 32.000000 32.000000 32.000000 32.000000 32.000000 32.000000 32.000000 32.000000 32.000000 32.000000 32.000000 32.000000 32.000000 32.000000 32.000000 32.000000 32.000000 32.000000 32.000000 32.000000 32.000000 32.000000 32.000000 32.000000 32.000000 32.000000 32.000000 32.000000 32.000000 32.000000 32.000000 32.000000 32.000000 32.000000 32.000000 32.000000 32.000000 32.000000 32.000000 32.000000 32.000000 32.000000 32.000000 32.000000 32.000000 32.000000 32.000000 32.000000 32.000000 32.000000 32.000000 32.000000 32.000000 32.000000 32.000000 32.000000 32.000000 32.000000 32.000000 32.000000 32.000000 32.000000 32.000000 32.000000 32.000000 32.000000 32.000000 32.000000 32.000000 32.000000 32.000000 32.000000 32.000000 32.000000 32.000000 32.000000 32.000000 32.000000 32.000000 32.000000 32.000000 32.000000 32.000000 32.000000 32.000000 32.000000 32.000000 32.000000 32.000000 32.000000 32.000000 32.000000 32.000000 32.000000 32.000000 32.000000 32.000000 32.000000 32.000000 32.000000 32.000000 32.000000 32.000000 32.000000 32.000000 32.000000 32.000000 32.000000 32.000000 32.000000 32.000000 32.000000 32.000000 32.000000 32.000000 32.000000 32.000000 32.000000 32.000000 32.000000 32.000000 32.000000 32.000000 32.000000 32.000000 32.000000 32.000000 32.000000 32.000000 32.000000 32.000000 32.000000 32.000000 32.000000 32.000000 32.000000 32.000000 32.000000 32.000000 32.000000 32.000000 32.000000 32.000000 32.000000 32.000000 32.000000 32.000000 32.000000 32.000000 32.000000 32.000000 32.000000 32.000000
32.377778 32.401732 32.425697 32.449688 32.473714 32.497788 32.521921 32.546126 32.570410 32.594789 32.619267 32.643860 32.668570 32.693412 32.718388 32.743512 32.768781 32.794210 32.819795 32.845548 32.871462 32.897551 32.923802 32.950228 32.976815 33.003573 33.030485 33.057560 33.084778 33.112145 33.139639 33.167265 33.194997 33.222837 33.250756 33.278757 33.306807 33.334905 33.363016 33.391138 33.419235 33.447301 33.475298 33.503219 33.531024 33.558706 33.586222 33.613563 33.640686 33.667582 33.694207 33.720551 33.746570 33.772254 33.797559 33.822475 33.846960 33.871003 33.894563 33.917631 33.940168 33.962164 33.983583 34.004417 34.024631 34.044218 34.063147 34.081412 34.098983 34.115856 34.132006 34.147428 34.162100 34.176019 34.189165 34.201536 34.213115 34.223902 34.233881 34.243052 34.251404 34.258937 34.265640 34.271515 34.276553 34.280756 34.284119 34.286641 34.288320 34.289156 34.289148 34.288296 34.286601 34.284063 34.280686 34.276468 34.271415 34.265527 34.258811 34.251267 34.242905 34.233724 34.223737 34.212945 34.201361 34.188987 34.175840 34.161923 34.147255 34.131839 34.115698 34.098837 34.081281 34.063035 34.044128 34.024566 34.004382 33.983582 33.962201 33.940248 33.917759 33.894745 33.871244 33.847266 33.822853 33.798014 33.772794 33.747202 33.721282 33.695045 33.668536 33.641764 33.614773 33.587574 33.560210 33.532690 33.505057 33.477318 33.449515 33.421653 33.393774 33.365880 33.338010 33.310166 33.282385 33.254665 33.227041 33.199509 33.172102 33.144815 33.117675 33.090677 33.063845 33.037171 33.010677 32.984353 32.958217 32.932259 32.906493 32.880907 32.855512 32.830296 32.805267 32.780410 32.755731 32.731216 32.706866 32.682666 32.658617 32.634702 32.610920 32.587253 32.563697 32.540237 32.516866 32.493568 32.470334 32.447150 32.424005 32.400885 32.377778
32.755556 32.803472 32.851414 32.899402 32.947465 32.995621 33.043899 33.092314 33.140897 33.189660 33.238632 33.287822 33.337261 33.386950 33.436921 33.487172 33.537733 33.588595 33.639788 33.691299 33.743154 33.795334 33.847866 33.900722 33.953926 34.007447 34.061304 34.115460 34.169930 34.224672 34.279697 34.334956 34.390458 34.446146 34.502027 34.558037 34.614179 34.670385 34.726652 34.782908 34.839147 34.895291 34.951331 35.007186 35.062844 35.118220 35.173299 35.227994 35.282288 35.336094 35.389391 35.442092 35.494176 35.545557 35.596211 35.646056 35.695068 35.743165 35.790327 35.836473 35.881585 35.925587 35.968461 36.010136 36.050597 36.089778 36.127665 36.164199 36.199369 36.233119 36.265442 36.296289 36.325653 36.353493 36.379802 36.404545 36.427719 36.449292 36.469263 36.487605 36.504319 36.519383 36.532798 36.544546 36.554629 36.563035 36.569764 36.574808 36.578168 36.579839 36.579823 36.578119 36.574728 36.569653 36.562894 36.554459 36.544348 36.532572 36.519133 36.504046 36.487311 36.468950 36.448964 36.427379 36.404196 36.379447 36.353136 36.325300 36.295943 36.265109 36.232804 36.199078 36.163938 36.127441 36.089597 36.050468 36.010066 35.968459 35.925662 35.881746 35.836731 35.790692 35.743649 35.695682 35.646812 35.597124 35.546638 35.495441 35.443556 35.391069 35.338003 35.284445 35.230416 35.176005 35.121229 35.066176 35.010862 34.955372 34.899719 34.843985 34.788180 34.732382 34.676597 34.620901 34.565294 34.509846 34.454555 34.399485 34.344631 34.290050 34.235733 34.181731 34.128031 34.074678 34.021656 33.969004 33.916702 33.864782 33.813220 33.762045 33.711229 33.660794 33.610711 33.560994 33.511615 33.462580 33.413860 33.365458 33.317341 33.269508 33.221926 33.174588 33.127463 33.080538 33.033782 32.987181 32.940702 32.894327 32.848026 32.801778 32.755556
33.133333 33.205231 33.277165 33.349173 33.421286 33.493548 33.565983 33.638637 33.711529 33.784706 33.858182 33.932004 34.006179 34.080753 34.155728 34.231148 34.307007 34.383349 34.460157 34.537476 34.615279 34.693607 34.772426 34.851772 34.931603 35.011950 35.092763 35.174067 35.255802 35.337989 35.420559 35.503528 35.586815 35.670433 35.754291 35.838395 35.922649 36.007050 36.091493 36.175973 36.260376 36.344691 36.428799 36.512682 36.596218 36.679384 36.762052 36.844197 36.925689 37.006498 37.086494 37.165645 37.243821 37.320988 37.397019 37.471879 37.545442 37.617677 37.688462 37.757766 37.825472 37.891554 37.955899 38.018484 38.079207 38.138044 38.194901 38.249761 38.302538 38.353216 38.401718 38.448034 38.492095 38.533893 38.573368 38.610516 38.645284 38.677671 38.707633 38.735169 38.760244 38.782858 38.802982 38.820618 38.835744 38.848362 38.858456 38.866027 38.871067 38.873577 38.873553 38.870995 38.865908 38.858290 38.848151 38.835489 38.820321 38.802645 38.782483 38.759835 38.734730 38.707166 38.677181 38.644775 38.609993 38.572838 38.533360 38.491567 38.447517 38.401220 38.352745 38.302103 38.249372 38.194567 38.137775 38.079015 38.018382 37.955899 37.891668 37.825717 37.758155 37.689012 37.618405 37.546365 37.473016 37.398389 37.322613 37.245721 37.167844 37.089014 37.009364 36.928926 36.847833 36.766114 36.683900 36.601219 36.518200 36.434863 36.351337 36.267637 36.183884 36.100091 36.016372 35.932734 35.849284 35.766022 35.683050 35.600360 35.518045 35.436092 35.354585 35.273506 35.192928 35.112828 35.033269 34.954224 34.875747 34.797805 34.720442 34.643622 34.567379 34.491673 34.416531 34.341907 34.267821 34.194225 34.121129 34.048485 33.976294 33.904507 33.833118 33.762078 33.691374 33.620956 33.550806 33.480876 33.411140 33.341552 33.272083 33.202688 33.133333
33.511111 33.607016 33.702971 33.799021 33.895220 33.991606 34.088238 34.185146 34.282392 34.379998 34.478027 34.576493 34.675458 34.774929 34.874967 34.975568 35.076791 35.178623 35.281120 35.384256 35.488087 35.592573 35.697766 35.803614 35.910164 36.017352 36.125218 36.233687 36.342792 36.452444 36.562671 36.673370 36.784561 36.896131 37.008091 37.120317 37.232810 37.345436 37.458190 37.570926 37.683631 37.796152 37.908468 38.020417 38.131972 38.242967 38.353367 38.463002 38.571834 38.679688 38.786524 38.892165 38.996570 39.099564 39.201103 39.301016 39.399260 39.495667 39.590197 39.682690 39.773106 39.861294 39.947219 40.030737 40.111819 40.190331 40.266248 40.339449 40.409913 40.477529 40.542282 40.604075 40.662894 40.718655 40.771350 40.820904 40.867312 40.910513 40.950503 40.987232 41.020697 41.050858 41.077716 41.101237 41.121423 41.138251 41.151721 41.161818 41.168544 41.171891 41.171859 41.168449 41.161660 41.151500 41.137970 41.121084 41.100842 41.077268 41.050361 41.020154 40.986647 40.949883 40.909862 40.866637 40.820210 40.770645 40.717948 40.662194 40.603389 40.541623 40.476906 40.409337 40.338934 40.265807 40.189977 40.111568 40.030605 39.947222 39.861452 39.773437 39.683214 39.590936 39.496643 39.400496 39.302538 39.202936 39.101736 38.999110 38.895102 38.789889 38.683515 38.576156 38.467856 38.358789 38.248994 38.138647 38.027778 37.916560 37.805018 37.693318 37.581480 37.469660 37.357872 37.246264 37.134840 37.023740 36.912961 36.802628 36.692733 36.583390 36.474580 36.366407 36.258843 36.151981 36.045786 35.940336 35.835591 35.731616 35.628365 35.525890 35.424140 35.323155 35.222879 35.123341 35.024480 34.926314 34.828780 34.731886 34.635565 34.539815 34.444569 34.349815 34.255487 34.161564 34.067979 33.974704 33.881676 33.788857 33.696188 33.603624 33.511111
33.888889 34.008838 34.128847 34.248981 34.369292 34.489852 34.610703 34.731921 34.853540 34.975637 35.098236 35.221415 35.345187 35.469631 35.594747 35.720612 35.847214 35.974627 36.102826 36.231882 36.361754 36.492509 36.624090 36.756559 36.889845 37.024001 37.158941 37.294711 37.431208 37.568470 37.706379 37.844962 37.984087 38.123771 38.263867 38.404381 38.545153 38.686179 38.827285 38.968458 39.109511 39.250423 39.390995 39.531198 39.670825 39.809839 39.948025 40.085340 40.221567 40.356654 40.490384 40.622703 40.753391 40.882392 41.009492 41.134633 41.257604 41.378352 41.496671 41.612511 41.725676 41.836119 41.943657 42.048246 42.149715 42.248028 42.343028 42.434682 42.522850 42.607506 42.688522 42.765879 42.839464 42.909265 42.975182 43.037208 43.095257 43.149326 43.199344 43.245309 43.287163 43.324906 43.358494 43.387926 43.413170 43.434226 43.451070 43.463704 43.472115 43.476302 43.476263 43.471996 43.463507 43.450795 43.433876 43.412747 43.387435 43.357936 43.324287 43.286487 43.244582 43.198572 43.148516 43.094417 43.036346 42.974307 42.908387 42.838594 42.765028 42.687703 42.606733 42.522137 42.434045 42.342482 42.247593 42.149408 42.048087 41.943668 41.836324 41.726097 41.613174 41.497602 41.379579 41.259157 41.136543 41.011791 40.885115 40.756573 40.626382 40.494600 40.361447 40.226978 40.091416 39.954811 39.817383 39.679177 39.540410 39.401119 39.261515 39.121629 38.981660 38.841632 38.701734 38.561980 38.422547 38.283438 38.144819 38.006682 37.869179 37.732290 37.596153 37.460739 37.326171 37.192409 37.059559 36.927575 36.796547 36.666420 36.537267 36.409026 36.281757 36.155390 36.029970 35.905423 35.781777 35.658956 35.536974 35.415750 35.295288 35.175504 35.056388 34.937857 34.819889 34.702403 34.585365 34.468696 34.352353 34.236259 34.120363 34.004593 33.888889
34.266667 34.410703 34.554814 34.699069 34.843549 34.988313 35.133449 35.279003 35.425068 35.571678 35.718928 35.866841 36.015510 36.164944 36.315238 36.466384 36.618475 36.771487 36.925509 37.080501 37.236545 37.393586 37.551699 37.710809 37.870984 38.032131 38.194309 38.357406 38.521472 38.686373 38.852151 39.018653 39.185907 39.353746 39.522182 39.691031 39.860295 40.029772 40.199452 40.369118 40.538747 40.708110 40.877172 41.045693 41.213628 41.380727 41.546938 41.712001 41.875860 42.038251 42.199110 42.358173 42.515374 42.670450 42.823333 42.973765 43.121680 43.266826 43.409138 43.548378 43.684484 43.817229 43.946557 44.072256 44.194276 44.312422 44.426652 44.536787 44.642791 44.744505 44.841901 44.934835 45.023289 45.107136 45.186364 45.260864 45.330628 45.395564 45.455670 45.510869 45.561160 45.606482 45.646837 45.682178 45.712506 45.737787 45.758023 45.773192 45.783296 45.788324 45.788277 45.783154 45.772957 45.757696 45.737369 45.712002 45.681591 45.646172 45.605743 45.560353 45.510001 45.454749 45.394598 45.329626 45.259835 45.185321 45.106090 45.022252 44.933822 44.840927 44.743585 44.641945 44.536031 44.426008 44.311909 44.193918 44.072076 43.946582 43.817485 43.685000 43.549184 43.410267 43.268310 43.123555 42.976069 42.826104 42.673729 42.519205 42.362600 42.204181 42.044014 41.882367 41.719305 41.555094 41.389792 41.223664 41.056759 40.889335 40.721434 40.553303 40.384974 40.216684 40.048453 39.880503 39.712845 39.545685 39.379019 39.213039 39.047729 38.883262 38.719610 38.556929 38.395177 38.234492 38.074821 37.916284 37.758817 37.602520 37.447321 37.293300 37.140379 36.988617 36.837930 36.688361 36.539819 36.392329 36.245796 36.100230 35.955533 35.811700 35.668630 35.526304 35.384623 35.243552 35.102995 34.962906 34.823190 34.683791 34.544618 34.405604 34.266667
34.644444 34.812621 34.980882 35.149320 35.318010 35.487050 35.656503 35.826475 35.997015 36.168230 36.340157 36.512905 36.686493 36.861033 37.036524 37.213078 37.390676 37.569425 37.749288 37.930367 38.112604 38.296095 38.480761 38.666688 38.853778 39.042106 39.231552 39.422179 39.613846 39.806605 40.000290 40.194940 40.390369 40.586602 40.783431 40.980866 41.178681 41.376870 41.575189 41.773617 41.971892 42.169983 42.367611 42.564731 42.761054 42.956524 43.150841 43.343939 43.535514 43.725491 43.913563 44.099651 44.283447 44.464870 44.643616 44.819603 44.992534 45.162329 45.328704 45.491581 45.650688 45.805956 45.957127 46.104140 46.246756 46.384922 46.518417 46.647199 46.771067 46.889987 47.003782 47.112424 47.215758 47.313764 47.406308 47.493378 47.574857 47.650742 47.720933 47.785430 47.844154 47.897106 47.944224 47.985510 48.020918 48.050451 48.074076 48.091796 48.103592 48.109465 48.109410 48.103427 48.091523 48.073696 48.049968 48.020334 47.984830 47.943452 47.896250 47.843219 47.784425 47.719866 47.649623 47.573697 47.492188 47.405101 47.312554 47.214559 47.111254 47.002657 46.888927 46.770092 46.646330 46.517678 46.384338 46.246353 46.103946 45.957171 45.806270 45.651305 45.492537 45.330035 45.164077 44.994737 44.822307 44.646865 44.468713 44.287933 44.104834 43.919496 43.732232 43.543122 43.352478 43.160373 42.967119 42.772780 42.577661 42.381819 42.185547 41.988892 41.792136 41.595311 41.398685 41.202277 41.006338 40.810871 40.616111 40.422045 40.228886 40.036610 39.845407 39.655238 39.466273 39.278459 39.091942 38.906658 38.722732 38.540085 38.358822 38.178855 38.000265 37.822955 37.646987 37.472256 37.298802 37.126515 36.955417 36.785392 36.616444 36.448457 36.281414 36.115199 35.949780 35.785042 35.620938 35.457356 35.294234 35.131465 34.968975 34.806663 34.644444
35.022222 35.214598 35.407076 35.599747 35.792722 35.986081 36.179941 36.374366 36.569480 36.765332 36.962047 37.159658 37.358291 37.557958 37.758787 37.960769 38.164028 38.368534 38.574407 38.781594 38.990207 39.200171 39.411589 39.624361 39.838578 40.054119 40.271060 40.489255 40.708768 40.929425 41.151276 41.374124 41.598001 41.822685 42.048194 42.274280 42.500944 42.727918 42.955184 43.182454 43.409695 43.636599 43.863119 44.088931 44.313973 44.537909 44.760666 44.981898 45.201522 45.419185 45.634800 45.848011 46.058726 46.266591 46.471513 46.673145 46.871393 47.065923 47.256644 47.443235 47.625611 47.803469 47.976732 48.145117 48.308556 48.466787 48.619754 48.767219 48.909135 49.045288 49.175643 49.300010 49.418364 49.530539 49.636520 49.736162 49.829459 49.916288 49.996648 50.070439 50.137663 50.198238 50.252170 50.299396 50.339921 50.373701 50.400738 50.421005 50.434505 50.441223 50.441160 50.434318 50.420695 50.400308 50.373152 50.339259 50.298624 50.251295 50.197267 50.136603 50.069299 49.995439 49.915020 49.828144 49.734814 49.635153 49.529169 49.417009 49.298687 49.174373 49.044092 48.908037 48.766243 48.618928 48.466137 48.308113 48.144913 47.976802 47.803847 47.626337 47.444347 47.258187 47.067941 46.873933 46.676256 46.475248 46.271004 46.063875 45.853956 45.641603 45.426912 45.210240 44.991679 44.771585 44.550040 44.327398 44.103731 43.879382 43.654411 43.429150 43.203643 42.978208 42.752874 42.527939 42.303416 42.079583 41.856437 41.634233 41.412949 41.192818 40.973802 40.756108 40.539682 40.324706 40.111112 39.899054 39.688451 39.479434 39.271906 39.065973 38.861529 38.658654 38.457234 38.257324 38.058803 37.861703 37.665897 37.471397 37.278070 37.085907 36.894776 36.704649 36.515390 36.326956 36.139215 35.952104 35.765497 35.579316 35.393441 35.207780 35.022222
35.400000 35.616645 35.833400 36.050385 36.267698 36.485469 36.703778 36.922764 37.142490 37.363097 37.584633 37.807240 38.030945 38.255890 38.482081 38.709657 38.938600 39.169046 39.400952 39.634447 39.869461 40.106115 40.344312 40.584162 40.825540 41.068543 41.313020 41.559050 41.806453 42.055295 42.305366 42.556714 42.809100 43.062555 43.316813 43.571884 43.827476 44.083582 44.339884 44.596355 44.852658 45.108745 45.364260 45.619139 45.873009 46.125792 46.377102 46.626849 46.874637 47.120367 47.363640 47.604348 47.842094 48.076767 48.307973 48.535602 48.759270 48.978869 49.194030 49.404651 49.610380 49.811124 50.006550 50.196578 50.380900 50.559444 50.731930 50.898300 51.058298 51.211881 51.358821 51.499085 51.632473 51.758965 51.878387 51.990728 52.095840 52.193719 52.284243 52.367412 52.443127 52.511392 52.572130 52.625345 52.670980 52.709040 52.739485 52.762319 52.777520 52.785089 52.785019 52.777311 52.761973 52.739004 52.708428 52.670240 52.624484 52.571154 52.510309 52.441945 52.366142 52.282895 52.192306 52.094375 51.989227 51.876866 51.757441 51.630966 51.497615 51.357411 51.210556 51.057084 50.897224 50.731022 50.558736 50.380425 50.196373 50.006653 49.811574 49.611221 49.405929 49.195792 48.981166 48.762153 48.539129 48.312202 48.081760 47.847914 47.611065 47.371321 47.129089 46.884474 46.637882 46.389414 46.139470 45.888142 45.635820 45.382585 45.128815 44.874574 44.620226 44.365817 44.111692 43.857878 43.604698 43.352160 43.100564 42.849897 42.600432 42.352139 42.105262 41.859752 41.615826 41.373416 41.132710 40.893625 40.656318 40.420692 40.186876 39.954757 39.724440 39.495798 39.268908 39.043635 38.820028 38.597947 38.377415 38.158286 37.940559 37.724085 37.508841 37.294678 37.081551 36.869312 36.657897 36.447163 36.237027 36.027351 35.818039 35.608959 35.400000
35.777778 36.018764 36.259880 36.501241 36.742989 36.985223 37.228093 37.471682 37.716145 37.961546 38.208044 38.455679 38.704614 38.954866 39.206593 39.459790 39.714611 39.971023 40.229174 40.489002 40.750649 41.014021 41.279249 41.546211 41.815021 42.085527 42.357828 42.631741 42.907345 43.184427 43.463047 43.742959 44.024204 44.306503 44.589876 44.874016 45.158920 45.444252 45.729988 46.015765 46.301539 46.586923 46.871852 47.155920 47.439045 47.720803 48.001096 48.279488 48.555871 48.829799 49.101155 49.369492 49.634686 49.896293 50.154188 50.407935 50.657410 50.902192 51.142161 51.376913 51.606339 51.830057 52.047966 52.259712 52.465207 52.664125 52.856393 53.041714 53.220030 53.391075 53.554805 53.710986 53.859587 54.000405 54.133421 54.258461 54.375516 54.484440 54.585231 54.677769 54.762058 54.838003 54.905609 54.964804 55.015594 55.057927 55.091808 55.117205 55.134121 55.142539 55.142462 55.133891 55.116824 55.091279 55.057252 55.014781 54.963856 54.904536 54.836811 54.760759 54.676372 54.583749 54.482886 54.373907 54.256812 54.131751 53.998733 53.857935 53.709376 53.553264 53.389628 53.218707 53.040545 52.855412 52.663366 52.464709 52.259513 52.048110 51.830588 51.607306 51.378365 51.144151 50.904776 50.660648 50.411887 50.158921 49.901874 49.641188 49.376988 49.109726 48.839524 48.566837 48.291783 48.014813 47.736036 47.455897 47.174492 46.892252 46.609260 46.325931 46.042327 45.758844 45.475525 45.192742 44.910518 44.629196 44.348778 44.069580 43.791581 43.515067 43.239995 42.966620 42.694878 42.424994 42.156881 41.890734 41.626448 41.364185 41.103826 40.845500 40.589073 40.334643 40.082067 39.831412 39.582523 39.335441 39.090004 38.846225 38.603937 38.363127 38.123626 37.885398 37.648274 37.412194 37.176994 36.942592 36.708830 36.475607 36.242773 36.010210 35.777778
36.155556 36.420968 36.686517 36.952352 37.218595 37.485407 37.752889 38.021211 38.290455 38.560795 38.832291 39.105120 39.379317 39.655058 39.932351 40.211371 40.492097 40.774697 41.059121 41.345528 41.633837 41.924195 42.216487 42.510848 42.807129 43.105448 43.405622 43.707748 44.011610 44.317286 44.624521 44.933373 45.243553 45.555093 45.867670 46.181295 46.495611 46.810603 47.125884 47.441416 47.756784 48.071926 48.386403 48.700131 49.012651 49.323860 49.633282 49.940800 50.245926 50.548530 50.848119 51.144553 51.437343 51.726342 52.011067 52.291374 52.566789 52.837173 53.102071 53.361352 53.614582 53.861643 54.102127 54.335930 54.562675 54.782274 54.994384 55.198931 55.395607 55.584357 55.764906 55.937215 56.101044 56.256369 56.402983 56.540874 56.669868 56.789962 56.901010 57.003019 57.095870 57.179573 57.254035 57.319268 57.375202 57.421848 57.459158 57.487140 57.505767 57.515043 57.514960 57.505517 57.486726 57.458582 57.421114 57.374316 57.318237 57.252867 57.178277 57.094456 57.001500 56.899399 56.788274 56.668120 56.539084 56.401170 56.254556 56.099254 55.935473 55.763239 55.582796 55.394183 55.197678 54.993337 54.781474 54.562162 54.335747 54.102321 53.862264 53.615683 53.362987 53.104299 52.840056 52.570389 52.295762 52.016314 51.732523 51.444535 51.152842 50.857587 50.559270 50.258031 49.954368 49.648413 49.340661 49.031230 48.720605 48.408886 48.096544 47.783660 47.470682 47.157672 46.845053 46.532863 46.221499 45.910973 45.601650 45.293520 44.986915 44.681800 44.378473 44.076874 43.777267 43.479570 43.184010 42.890486 42.599189 42.309997 42.023067 41.738262 41.455703 41.175237 40.896954 40.620689 40.346499 40.074209 39.803846 39.535230 39.268357 39.003043 38.739257 38.476815 38.215659 37.955607 37.696579 37.438395 37.180954 36.924084 36.667666 36.411535 36.155556
36.533333 36.823256 37.113336 37.403718 37.694570 37.986019 38.278244 38.571349 38.865523 39.160845 39.457508 39.755566 40.055212 40.356474 40.659543 40.964415 41.271278 41.580095 41.891047 42.204062 42.519311 42.836687 43.156346 43.478146 43.802225 44.128403 44.456799 44.787197 45.119691 45.454027 45.790278 46.128148 46.467685 46.808557 47.150785 47.493999 47.838193 48.182962 48.528275 48.873692 49.219155 49.564198 49.908736 50.252278 50.594716 50.935537 51.274617 51.611427 51.945824 52.277272 52.605616 52.930316 53.251213 53.567768 53.879819 54.186840 54.488671 54.784801 55.075079 55.359016 55.636473 55.906988 56.170436 56.426390 56.674741 56.915096 57.147365 57.371195 57.586515 57.793007 57.990622 58.179082 58.358352 58.528193 58.688585 58.839325 58.980407 59.111661 59.233089 59.344553 59.446063 59.537507 59.618899 59.690154 59.751285 59.802232 59.843004 59.873564 59.893919 59.904050 59.903960 59.893650 59.873117 59.842383 59.801440 59.750330 59.689043 59.617640 59.536110 59.444540 59.342917 59.231354 59.109843 58.978526 58.837399 58.686637 58.526245 58.356431 58.177215 57.988840 57.791341 57.584999 57.369866 57.146264 56.914263 56.674222 56.426233 56.170693 55.907710 55.637718 55.360845 55.077556 54.787991 54.492647 54.191674 53.885591 53.574558 53.259109 52.939407 52.615996 52.289038 51.959080 51.626278 51.291176 50.953917 50.615038 50.274664 49.933319 49.591107 49.248530 48.905672 48.563010 48.220600 47.878892 47.537915 47.198086 46.859408 46.522261 46.186622 45.852833 45.520845 45.190963 44.863109 44.537551 44.214188 43.893248 43.574607 43.258454 42.944647 42.633336 42.324362 42.017838 41.713589 41.411694 41.111965 40.814448 40.518945 40.225469 39.933819 39.643974 39.355731 39.069042 38.783703 38.499638 38.216647 37.934632 37.653396 37.372820 37.092717 36.812946 36.533333
36.911111 37.225641 37.540335 37.855375 38.170907 38.487123 38.804149 39.122188 39.441339 39.761813 40.083683 40.407161 40.732293 41.059289 41.388164 41.719126 42.052155 42.387451 42.724960 43.064872 43.407093 43.751802 44.098865 44.448443 44.800365 45.154769 45.511443 45.870504 46.231697 46.595114 46.960458 47.327793 47.696781 48.067458 48.439443 48.812742 49.186937 49.562003 49.937484 50.313325 50.689036 51.064534 51.439298 51.813219 52.185751 52.556760 52.925680 53.292359 53.656215 54.017082 54.374370 54.727903 55.077092 55.421755 55.761311 56.095579 56.423992 56.746376 57.062185 57.371256 57.673073 57.967486 58.254013 58.532523 58.802572 59.064049 59.316551 59.559990 59.794003 60.018526 60.233239 60.438096 60.632821 60.817388 60.991560 61.155325 61.308486 61.451044 61.582835 61.703870 61.814018 61.913294 62.001595 62.078939 62.145250 62.200542 62.244765 62.277929 62.300006 62.311000 62.310904 62.299717 62.277451 62.244100 62.199696 62.144228 62.077750 62.000248 61.911800 61.812390 61.702122 61.580982 61.449104 61.306478 61.153271 60.989483 60.815315 60.630778 60.436113 60.231348 60.016763 59.792404 59.558596 59.315404 59.063195 58.802059 58.532404 58.254341 57.968320 57.674474 57.373291 57.064921 56.749887 56.428354 56.100872 55.767620 55.429169 55.085703 54.737810 54.385673 54.029888 53.670634 53.308508 52.943677 52.576732 52.207826 51.837534 51.465989 51.093748 50.720920 50.348036 49.975177 49.602846 49.231094 48.860389 48.490755 48.122620 47.755978 47.391218 47.028304 46.667584 46.308991 45.952833 45.599014 45.247801 44.899071 44.553049 44.209590 43.868875 43.530741 43.195327 42.862451 42.532215 42.204422 41.879136 41.556147 41.235483 40.916929 40.600477 40.285905 39.973176 39.662065 39.352505 39.044274 38.737275 38.431293 38.126207 37.821807 37.517950 37.214440 36.911111
37.288889 37.628120 37.967539 38.307317 38.647656 38.988706 39.330682 39.673708 40.018007 40.363677 40.710947 41.059883 41.410716 41.763480 42.118402 42.475484 42.834946 43.196751 43.561111 43.927950 44.297466 44.669543 45.044361 45.421761 45.801904 46.184587 46.569947 46.957736 47.348066 47.740641 48.135545 48.532439 48.931373 49.331963 49.734228 50.137739 50.542484 50.947989 51.354210 51.760634 52.167184 52.573313 52.978911 53.383401 53.786646 54.188042 54.587429 54.984184 55.378126 55.768622 56.155476 56.538050 56.916141 57.289115 57.656766 58.018473 58.374034 58.722849 59.064725 59.399089 59.725766 60.044214 60.354279 60.655461 60.947625 61.230314 61.503421 61.766535 62.019571 62.262167 62.494263 62.715541 62.925965 63.125264 63.313419 63.490202 63.655610 63.809454 63.951745 64.082328 64.201221 64.308303 64.403595 64.487004 64.558552 64.618172 64.665882 64.701639 64.725455 64.737310 64.737207 64.725149 64.701131 64.665176 64.617273 64.557467 64.485742 64.402165 64.306717 64.199493 64.080473 63.949779 63.807397 63.653483 63.488027 63.311222 63.123072 62.923809 62.713451 62.492274 62.260317 62.017900 61.765085 61.502240 61.229449 60.947128 60.655388 60.354691 60.045171 59.727336 59.401341 59.067734 58.726692 58.378795 58.024237 57.663625 57.297163 56.925481 56.548783 56.167715 55.782479 55.393723 55.001642 54.606880 54.209618 53.810490 53.409655 53.007728 52.604845 52.201595 51.798087 51.394879 50.992047 50.590115 50.189128 49.789569 49.391449 48.995209 48.600828 48.208702 47.818776 47.431403 47.046496 46.664360 46.284881 45.908319 45.534530 45.163729 44.795751 44.430765 44.068584 43.709334 43.352812 42.999101 42.647983 42.299504 41.953433 41.609778 41.268302 40.928977 40.591563 40.255998 39.922042 39.589603 39.258443 38.928443 38.599372 38.271084 37.943359 37.616030 37.288889
37.666667 38.030706 38.394939 38.759580 39.124802 39.490832 39.857818 40.225999 40.595497 40.966555 41.339265 41.713876 42.090444 42.469218 42.850219 43.233689 43.619613 44.008224 44.399466 44.793560 45.190405 45.590206 45.992820 46.398430 46.806845 47.218226 47.632334 48.049303 48.468844 48.891062 49.315618 49.742584 50.171573 50.602623 51.035296 51.469594 51.905034 52.341582 52.778708 53.216343 53.653916 54.091322 54.527955 54.963676 55.397849 55.830306 56.260384 56.687893 57.112153 57.532953 57.949605 58.361886 58.769109 59.171043 59.567009 59.956781 60.339697 60.715537 61.083667 61.443883 61.795583 62.138584 62.472327 62.796650 63.111041 63.415367 63.709164 63.992327 64.264445 64.525440 64.774952 65.012931 65.239067 65.453333 65.655467 65.845461 66.023099 66.188389 66.341152 66.481408 66.609017 66.724002 66.826254 66.915801 66.992561 67.056557 67.107736 67.146113 67.171660 67.184384 67.184276 67.171336 67.145577 67.106990 67.055608 66.991415 66.914469 66.824746 66.722329 66.607195 66.479453 66.339081 66.186223 66.020860 65.843175 65.653158 65.451032 65.236805 65.010744 64.772875 64.523514 64.262712 63.990834 63.707958 63.414503 63.110573 62.796638 62.472834 62.139678 61.797333 61.446366 61.086961 60.719727 60.344869 59.963030 59.574431 59.179741 58.779188 58.373463 57.962792 57.547876 57.128938 56.706676 56.281300 55.853502 55.423473 54.991886 54.558908 54.125188 53.690865 53.256555 52.822364 52.388873 51.956153 51.524744 51.094678 50.666452 50.240063 49.815958 49.394098 48.974884 48.558240 48.144516 47.733605 47.325808 46.920985 46.519389 46.120852 45.725579 45.333378 44.944404 44.558448 44.175618 43.795685 43.418718 43.044472 42.672973 42.303970 41.937447 41.573148 41.211020 40.850804 40.492415 40.135595 39.780226 39.426057 39.072941 38.720636 38.368969 38.017711 37.666667