# vtk DataFile Version 3.0
Steady-state temperature (Jacobi)
ASCII
DATASET STRUCTURED_POINTS
DIMENSIONS 181 181 1
ORIGIN 0.0 0.0 0.0
SPACING 0.05 0.05 1.0
POINT_DATA 32761
SCALARS Temperature float 1
LOOKUP_TABLE default
32.000000 32.000000 32.000000 32.000000 32.000000 32.000000 32.000000 32.000000
32.000000 32.000000 32.000000 32.000000 32.000000 32.000000 32.000000 32.000000
32.000000 32.000000 32.000000 32.000000 32.000000 32.000000 32.000000 32.000000
32.000000 32.000000 32.000000 32.000000 32.000000 32.000000 32.000000 32.000000
32.000000 32.000000 32.000000 32.000000 32.000000 32.000000 32.000000 32.000000
32.000000 32.000000 32.000000 32.000000 32.000000 32.000000 32.000000 32.000000
32.000000 32.000000 32.000000 32.000000 32.000000 32.000000 32.000000 32.000000
32.000000 32.000000 32.000000 32.000000 32.000000 32.000000 32.000000 32.000000
32.000000 32.000000 32.000000 32.000000 32.000000 32.000000 32.000000 32.000000
32.000000 32.000000 32.000000 32.000000 32.000000 32.000000 32.000000 32.000000
32.000000 32.000000 32.000000 32.000000 32.000000 32.000000 32.000000 32.000000
32.000000 32.000000 32.000000 32.000000 32.000000 32.000000 32.000000 32.000000
32.000000 32.000000 32.000000 32.000000 32.000000 32.000000 32.000000 32.000000
32.000000 32.000000 32.000000 32.000000 32.000000 32.000000 32.000000 32.000000
32.000000 32.000000 32.000000 32.000000 32.000000 32.000000 32.000000 32.000000
32.000000 32.000000 32.000000 32.000000 32.000000 32.000000 32.000000 32.000000
32.000000 32.000000 32.000000 32.000000 32.000000 32.000000 32.000000 32.000000
32.000000 32.000000 32.000000 32.000000 32.000000 32.000000 32.000000 32.000000
32.000000 32.000000 32.000000 32.000000 32.000000 32.000000 32.000000 32.000000
32.000000 32.000000 32.000000 32.000000 32.000000 32.000000 32.000000 32.000000
32.000000 32.000000 32.000000 32.000000 32.000000 32.000000 32.000000 32.000000
32.000000 32.000000 32.000000 32.000000 32.000000 32.000000 32.000000 32.000000
32.000000 32.000000 32.000000 32.000000 32.000000
32.377778 32.388314 32.398875 32.409490 32.420181 32.430979 32.441900 32.452981
32.464233 32.475695 32.487372 32.499305 32.511495 32.523986 32.536770 32.549894
32.563347 32.577173 32.591355 32.605940 32.620905 32.636296 32.652083 32.668313
32.684949 32.702039 32.719538 32.737493 32.755855 32.774668 32.793876 32.813523
32.833547 32.853990 32.874785 32.895970 32.917475 32.939334 32.961474 32.983926
33.006612 33.029562 33.052693 33.076034 33.099498 33.123111 33.146786 33.170546
33.194301 33.218075 33.241775 33.265423 33.288928 33.312309 33.335478 33.358452
33.381143 33.403569 33.425644 33.447385 33.468710 33.489636 33.510083 33.530070
33.549520 33.568451 33.586794 33.604564 33.621697 33.638209 33.654043 33.669212
33.683665 33.697417 33.710420 33.722689 33.734183 33.744914 33.754848 33.763996
33.772329 33.779857 33.786555 33.792434 33.797473 33.801681 33.805043 33.807564
33.809236 33.810061 33.810037 33.809164 33.807445 33.804876 33.801466 33.797210
33.792121 33.786193 33.779444 33.771865 33.763480 33.754280 33.744293 33.733507
33.721958 33.709633 33.696573 33.682763 33.668250 33.653020 33.637126 33.620551
33.603355 33.585521 33.567114 33.548117 33.528601 33.508548 33.488033 33.467040
33.445648 33.423839 33.401698 33.379206 33.356450 33.333411 33.310180 33.286737
33.263173 33.239468 33.215713 33.191889 33.168086 33.144281 33.120567 33.096919
33.073425 33.050060 33.026912 33.003951 32.981261 32.958813 32.936687 32.914849
32.893376 32.872233 32.851491 32.831113 32.811166 32.791610 32.772505 32.753811
32.735583 32.717778 32.700444 32.683538 32.667103 32.651093 32.635546 32.620415
32.605731 32.591447 32.577588 32.564108 32.551026 32.538295 32.525928 32.513880
32.502158 32.490718 32.479561 32.468645 32.457966 32.447483 32.437189 32.427044
32.417035 32.407127 32.397301 32.387525 32.377778
32.755556 32.776647 32.797793 32.819039 32.840448 32.862055 32.883931 32.906102
32.928643 32.951571 32.974966 32.998835 33.023262 33.048242 33.073863 33.100108
33.127069 33.154716 33.183142 33.212306 33.242301 33.273075 33.304720 33.337170
33.370519 33.404688 33.439767 33.475667 33.512475 33.550089 33.588595 33.627877
33.668019 33.708893 33.750579 33.792939 33.836048 33.879758 33.924139 33.969035
34.014510 34.060402 34.106770 34.153443 34.200478 34.247697 34.295153 34.342666
34.390284 34.437823 34.485329 34.532618 34.579732 34.626488 34.672926 34.718866
34.764346 34.809190 34.853433 34.896908 34.939647 34.981489 35.022469 35.062431
35.101411 35.139262 35.176020 35.211548 35.245881 35.278895 35.310622 35.340949
35.369909 35.397401 35.423455 35.447982 35.471010 35.492462 35.512365 35.530651
35.547346 35.562393 35.575814 35.587565 35.597661 35.606071 35.612806 35.617844
35.621194 35.622844 35.622797 35.621052 35.617606 35.612472 35.605640 35.597133
35.586939 35.575089 35.561568 35.546419 35.529621 35.511229 35.491220 35.469659
35.446521 35.421882 35.395713 35.368105 35.339026 35.308578 35.276729 35.243591
35.209132 35.173475 35.136588 35.098606 35.059494 35.019399 34.978285 34.936309
34.893435 34.849827 34.805450 34.760474 34.714864 34.668795 34.622231 34.575352
34.528120 34.480717 34.433102 34.385461 34.337747 34.290147 34.242611 34.195322
34.148228 34.101507 34.055103 34.009190 33.963707 33.918820 33.874465 33.830799
33.787754 33.745478 33.703899 33.663154 33.623167 33.584065 33.545768 33.508391
33.471850 33.436250 33.401503 33.367702 33.334756 33.302747 33.271581 33.241327
33.211892 33.183333 33.155554 33.128601 33.102379 33.076922 33.052136 33.028042
33.004551 32.981670 32.959314 32.937479 32.916083 32.895112 32.874490 32.854191
32.834143 32.814315 32.794638 32.775071 32.755556
33.133333 33.165023 33.196789 33.228717 33.260871 33.293349 33.326198 33.359528
33.393371 33.427844 33.462965 33.498858 33.535523 33.573090 33.611544 33.651018
33.691479 33.733064 33.775722 33.819592 33.864603 33.910896 33.958382 34.007199
34.057241 34.108644 34.161283 34.215291 34.270525 34.327114 34.384895 34.443995
34.504232 34.565727 34.628284 34.692014 34.756707 34.822468 34.889072 34.956617
35.024865 35.093909 35.163497 35.233715 35.304305 35.375345 35.446568 35.518048
35.589513 35.661031 35.732328 35.803468 35.874176 35.944512 36.014205 36.083311
36.151563 36.219017 36.285412 36.350803 36.414938 36.477871 36.539362 36.599464
36.657952 36.714876 36.770026 36.823453 36.874962 36.924604 36.972200 37.017801
37.061244 37.102578 37.141659 37.178532 37.213073 37.245323 37.275173 37.302663
37.327701 37.350320 37.370447 37.388110 37.403251 37.415892 37.425992 37.433565
37.438589 37.441069 37.440998 37.438375 37.433209 37.425491 37.415247 37.402460
37.387172 37.369361 37.349083 37.326311 37.301119 37.273472 37.243461 37.211049
37.176343 37.139300 37.100048 37.058539 37.014918 36.969138 36.921357 36.871529
36.819830 36.766212 36.710867 36.653747 36.595062 36.534760 36.473068 36.409934
36.345597 36.280006 36.213410 36.145758 36.077310 36.008012 35.938131 35.867611
35.796725 35.725414 35.653954 35.582282 35.510674 35.439062 35.367720 35.296575
35.225897 35.155606 35.085966 35.016890 34.948632 34.881099 34.814535 34.748839
34.684243 34.620639 34.558243 34.496942 34.436938 34.378109 34.320641 34.264408
34.209578 34.156018 34.103880 34.053027 34.003591 33.955435 33.908670 33.863157
33.818988 33.776025 33.734341 33.693795 33.654446 33.616153 33.578955 33.542717
33.507458 33.473048 33.439489 33.406655 33.374533 33.343004 33.312038 33.281523
33.251416 33.221613 33.192057 33.162654 33.133333
33.511111 33.553458 33.595913 33.638570 33.681553 33.724935 33.768856 33.813369
33.858625 33.904658 33.951629 33.999552 34.048594 34.098747 34.150187 34.202881
34.257011 34.312519 34.369592 34.428147 34.488372 34.550160 34.613698 34.678855
34.745815 34.814423 34.884861 34.956947 35.030859 35.106390 35.183713 35.262598
35.343208 35.425293 35.509007 35.594078 35.680652 35.768436 35.857568 35.947736
36.039069 36.131238 36.224364 36.318104 36.412569 36.507406 36.602717 36.698143
36.793776 36.889252 36.984657 37.079627 37.174241 37.268135 37.361386 37.453635
37.544954 37.634993 37.723822 37.811102 37.896902 37.980896 38.063153 38.143364
38.221595 38.297558 38.371320 38.442611 38.511497 38.577731 38.641379 38.702215
38.760304 38.815444 38.867696 38.916881 38.963059 39.006073 39.045977 39.082640
39.116109 39.146274 39.173177 39.196731 39.216968 39.233824 39.247324 39.257423
39.264137 39.267445 39.267350 39.263853 39.256948 39.246658 39.232966 39.215916
39.195483 39.171731 39.144627 39.114259 39.080584 39.043712 39.003594 38.960363
38.913965 38.864555 38.812075 38.756703 38.698377 38.637300 38.573407 38.506925
38.437786 38.366240 38.292219 38.215995 38.137499 38.057022 37.974498 37.890236
37.804168 37.716620 37.627524 37.537221 37.445641 37.353135 37.259633 37.165494
37.070643 36.975446 36.879823 36.784143 36.688319 36.592718 36.497248 36.402272
36.307688 36.213853 36.120657 36.028445 35.937098 35.846949 35.757869 35.670175
35.583728 35.498828 35.415327 35.333504 35.253203 35.174682 35.097777 35.022723
34.949347 34.877863 34.808091 34.740220 34.674068 34.609795 34.547218 34.486473
34.427372 34.370029 34.314254 34.260136 34.207489 34.156374 34.106609 34.058233
34.011066 33.965126 33.920237 33.876396 33.833436 33.791330 33.749921 33.709163
33.668910 33.629095 33.589586 33.550297 33.511111
33.888889 33.941977 33.995192 34.048680 34.102545 34.156952 34.211982 34.267817
34.324512 34.382261 34.441097 34.501224 34.562646 34.625579 34.689998 34.756126
34.823908 34.893574 34.965038 35.038531 35.113940 35.191495 35.271050 35.352838
35.436679 35.522802 35.610998 35.701489 35.794037 35.888856 35.985677 36.084708
36.185650 36.288700 36.393531 36.500332 36.608749 36.718957 36.830580 36.943783
37.058165 37.173881 37.290511 37.408198 37.526508 37.645571 37.764941 37.884740
38.004513 38.124372 38.243858 38.363076 38.481568 38.599431 38.716211 38.832001
38.946356 39.059364 39.170594 39.280130 39.387558 39.492961 39.595944 39.696589
39.794523 39.889828 39.982156 40.071590 40.157806 40.240887 40.320537 40.396838
40.469524 40.538673 40.604048 40.665723 40.723492 40.777423 40.827340 40.873304
40.915165 40.952981 40.986628 41.016153 41.041462 41.062591 41.079473 41.092132
41.100529 41.104674 41.104556 41.100174 41.091540 41.078642 41.061520 41.040149
41.014596 40.984823 40.950926 40.912857 40.870738 40.824512 40.774330 40.720128
40.662084 40.600128 40.534468 40.465029 40.392048 40.315446 40.235490 40.152098
40.065568 39.975815 39.883163 39.787531 39.689267 39.588290 39.484974 39.379235
39.271472 39.161601 39.050039 38.936700 38.822019 38.705909 38.588815 38.470646
38.351859 38.232356 38.112599 37.992484 37.872473 37.752455 37.632887 37.513650
37.395193 37.277387 37.160670 37.044901 36.930503 36.817323 36.705768 36.595670
36.487416 36.380827 36.276265 36.173542 36.072991 35.974414 35.878118 35.783894
35.692021 35.602281 35.514922 35.429721 35.346894 35.266212 35.187862 35.111610
35.037612 34.965634 34.895798 34.827872 34.761949 34.697796 34.635478 34.574767
34.515697 34.458048 34.401825 34.346816 34.293000 34.240176 34.188296 34.137171
34.086729 34.036797 33.987277 33.938014 33.888889
34.266667 34.330593 34.394683 34.459077 34.523963 34.589452 34.655753 34.722949
34.791265 34.860756 34.931661 35.004004 35.078036 35.153746 35.231397 35.310944
35.392658 35.476455 35.562613 35.651012 35.741930 35.835213 35.931137 36.029509
36.130605 36.234194 36.340545 36.449390 36.560993 36.675047 36.791807 36.910932
37.032664 37.156628 37.283055 37.411536 37.542289 37.674875 37.809498 37.945690
38.083642 38.222862 38.363525 38.505120 38.647808 38.791060 38.935025 39.079162
39.223609 39.367816 39.511912 39.655344 39.798233 39.940029 40.080844 40.220138
40.358018 40.493956 40.628055 40.759805 40.889307 41.016073 41.140201 41.261230
41.379259 41.493852 41.605110 41.712629 41.816507 41.916374 42.012329 42.104034
42.191585 42.274683 42.353417 42.427524 42.497089 42.561883 42.621985 42.677200
42.727600 42.773022 42.813528 42.848989 42.879455 42.904830 42.925151 42.940354
42.950461 42.955440 42.955298 42.950036 42.939645 42.924156 42.903548 42.877883
42.847124 42.811367 42.770561 42.724835 42.674128 42.618599 42.558178 42.493060
42.423165 42.348723 42.269646 42.186201 42.098295 42.006230 41.909909 41.809670
41.705414 41.597513 41.485867 41.370882 41.252458 41.131031 41.006501 40.879334
40.749430 40.617279 40.482781 40.346447 40.208176 40.068498 39.927306 39.785144
39.641901 39.498127 39.353707 39.209193 39.064461 38.920061 38.775859 38.632400
38.489535 38.347799 38.207031 38.067749 37.929778 37.793616 37.659073 37.526624
37.396065 37.267842 37.141738 37.018170 36.896905 36.778330 36.662200 36.548865
36.438071 36.330133 36.224786 36.122310 36.022431 35.925392 35.830915 35.739204
35.649978 35.563405 35.479203 35.397501 35.318020 35.240853 35.165723 35.092690
35.021483 34.952126 34.884357 34.818169 34.753310 34.689740 34.627223 34.565687
34.504913 34.444801 34.385149 34.325831 34.266667
34.644444 34.719334 34.794402 34.869854 34.945840 35.022589 35.100218 35.178980
35.258956 35.340420 35.423416 35.508233 35.594879 35.683654 35.774528 35.867812
35.963432 36.061708 36.162524 36.266204 36.372589 36.482003 36.594245 36.709635
36.827929 36.949444 37.073890 37.201578 37.332173 37.465976 37.602612 37.742370
37.884830 38.030270 38.178232 38.328976 38.482008 38.637572 38.795139 38.954938
39.116408 39.279761 39.444410 39.610549 39.777571 39.945653 40.114171 40.283288
40.452369 40.621562 40.790227 40.958503 41.125748 41.292092 41.456900 41.620296
41.781656 41.941098 42.098018 42.252531 42.404054 42.552701 42.697918 42.839818
42.977879 43.112213 43.242333 43.368353 43.489823 43.606856 43.719041 43.826491
43.928835 44.026182 44.118205 44.205006 44.286299 44.362182 44.432406 44.497062
44.555942 44.609124 44.656441 44.697957 44.733543 44.763249 44.786983 44.804780
44.816584 44.822413 44.822248 44.816089 44.803954 44.785825 44.761756 44.731713
44.695787 44.653926 44.606261 44.552725 44.493486 44.428465 44.357870 44.281610
44.199933 44.112740 44.020320 43.922567 43.819810 43.711941 43.599329 43.481863
43.359953 43.233487 43.102915 42.968124 42.829603 42.687238 42.541555 42.392439
42.240447 42.085467 41.928082 41.768178 41.606363 41.442519 41.277272 41.110501
40.942843 40.774170 40.605127 40.435576 40.266163 40.096740 39.927947 39.759623
39.592397 39.426093 39.261324 39.097899 38.936409 38.776645 38.619174 38.463769
38.310967 38.160524 38.012944 37.867965 37.726056 37.586939 37.451044 37.318080
37.188435 37.061806 36.938540 36.818322 36.701456 36.587622 36.477078 36.369498
36.265098 36.163550 36.065026 35.969197 35.876192 35.785688 35.697770 35.612120
35.528785 35.447454 35.368133 35.290526 35.214601 35.140074 35.066878 34.994748
34.923579 34.853129 34.783262 34.713756 34.644444
35.022222 35.108208 35.194414 35.281029 35.368304 35.456392 35.545571 35.635954
35.727843 35.821313 35.916685 36.013990 36.113567 36.215403 36.319850 36.426850
36.536762 36.649482 36.765377 36.884291 37.006595 37.132085 37.261130 37.393476
37.529487 37.668860 37.811953 37.958410 38.108581 38.262060 38.419185 38.579501
38.743332 38.910176 39.080339 39.253277 39.429277 39.607755 39.788976 39.972321
40.158035 40.345464 40.534836 40.725468 40.917569 41.110433 41.304252 41.498304
41.692763 41.886898 42.080871 42.273945 42.466272 42.657119 42.846627 43.034075
43.219598 43.402493 43.582889 43.760106 43.934273 44.104738 44.271630 44.434331
44.592970 44.746970 44.896458 45.040899 45.180422 45.314537 45.443370 45.566479
45.683988 45.795500 45.901138 46.000552 46.093856 46.180749 46.261336 46.335362
46.402921 46.463801 46.518086 46.565606 46.606428 46.640428 46.667653 46.688021
46.701562 46.708233 46.708045 46.700998 46.687081 46.666334 46.638727 46.604344
46.563133 46.515220 46.460538 46.399255 46.331286 46.256845 46.175835 46.088512
45.994769 45.894910 45.788818 45.676843 45.558863 45.435276 45.305955 45.171346
45.031321 44.886371 44.736367 44.581847 44.422681 44.259450 44.092025 43.921025
43.746324 43.568572 43.387645 43.204224 43.018181 42.830221 42.640212 42.448878
42.256079 42.062552 41.868147 41.673605 41.478766 41.284367 41.090234 40.897095
40.704761 40.513943 40.324434 40.136925 39.951188 39.767887 39.586776 39.408485
39.232748 39.060158 38.890431 38.724120 38.560920 38.401343 38.245065 38.092553
37.943469 37.798230 37.656485 37.518605 37.384227 37.253671 37.126567 37.003186
36.883152 36.766687 36.653415 36.543506 36.436587 36.332779 36.231715 36.133468
36.037679 35.944376 35.853212 35.764170 35.676918 35.591398 35.507294 35.424508
35.342748 35.261875 35.181624 35.101819 35.022222
35.400000 35.497246 35.594724 35.692701 35.791370 35.891030 35.991833 36.094106
36.197958 36.303739 36.411511 36.521647 36.634159 36.749436 36.867441 36.988574
37.112746 37.240367 37.371292 37.505937 37.644101 37.786201 37.931981 38.081854
38.235507 38.393347 38.555006 38.720879 38.890542 39.064379 39.241908 39.423498
39.608615 39.797609 39.989894 40.185800 40.384692 40.586881 40.791686 40.999395
41.209288 41.421629 41.635664 41.851635 42.068761 42.287259 42.506328 42.726167
42.945957 43.165881 43.385114 43.603823 43.821182 44.037349 44.251507 44.463802
44.673433 44.880544 45.084355 45.285005 45.481748 45.674721 45.863213 46.047361
46.226498 46.400762 46.569529 46.732942 46.890424 47.042120 47.187504 47.326720
47.459295 47.585370 47.704527 47.816898 47.922121 48.020320 48.111184 48.194827
48.270988 48.339768 48.400955 48.454634 48.500642 48.539045 48.569726 48.592731
48.607991 48.615527 48.615316 48.607359 48.591677 48.568247 48.537139 48.498305
48.451862 48.397742 48.336109 48.266877 48.190257 48.106148 48.014810 47.916127
47.810413 47.697541 47.577875 47.451281 47.318177 47.178424 47.032493 46.880242
46.722195 46.558211 46.388864 46.214015 46.034288 45.849543 45.660453 45.466879
45.269535 45.068284 44.863876 44.656174 44.445958 44.233088 44.018368 43.801653
43.583764 43.364546 43.144829 42.924447 42.704232 42.484002 42.264582 42.045774
41.828390 41.612209 41.398024 41.185593 40.975678 40.768019 40.563343 40.361364
40.162772 39.967260 39.775472 39.587078 39.402678 39.221920 39.045353 38.872605
38.704174 38.539673 38.379542 38.223383 38.071579 37.923722 37.780140 37.640415
37.504821 37.372936 37.244977 37.120524 36.999737 36.882200 36.768021 36.656789
36.548560 36.442936 36.339920 36.239130 36.140522 36.043730 35.948664 35.854982
35.762548 35.671047 35.580301 35.490024 35.400000
35.777778 35.886451 35.995404 36.104873 36.215176 36.326507 36.439214 36.553446
36.669579 36.787711 36.908246 37.031227 37.157078 37.285787 37.417796 37.553035
37.691956 37.834431 37.980920 38.131233 38.285834 38.444470 38.607604 38.774921
38.946878 39.123097 39.304025 39.489222 39.679121 39.873220 40.071936 40.274707
40.481929 40.692982 40.908240 41.127027 41.349694 41.575513 41.804810 42.036808
42.271808 42.508993 42.748636 42.989885 43.232989 43.477066 43.722343 43.967917
44.213993 44.459657 44.705095 44.949389 45.192711 45.434146 45.673858 45.910944
46.145558 46.376823 46.604887 46.828903 47.049018 47.264421 47.475261 47.680771
47.881102 48.075536 48.264226 48.446508 48.622537 48.791706 48.954171 49.109383
49.257497 49.398023 49.531112 49.656333 49.773832 49.883236 49.984678 50.077845
50.162857 50.239455 50.307742 50.367514 50.418855 50.461612 50.495846 50.521458
50.538484 50.546875 50.546642 50.537785 50.520291 50.494209 50.459502 50.416268
50.364446 50.304187 50.235405 50.158307 50.072787 49.979103 49.877135 49.767196
49.649153 49.523377 49.389723 49.248622 49.099922 48.944114 48.781043 48.611258
48.434603 48.251687 48.062354 47.867271 47.666284 47.460113 47.248609 47.032539
46.811757 46.587076 46.358349 46.126428 45.891164 45.653440 45.413104 45.171061
44.927151 44.682293 44.436317 44.190147 43.943598 43.697593 43.451926 43.207509
42.964116 42.722639 42.482829 42.245549 42.010525 41.778587 41.549434 41.323854
41.101522 40.883180 40.668474 40.458097 40.251673 40.049837 39.852190 39.659312
39.470784 39.287124 39.107896 38.933559 38.763661 38.598598 38.437910 38.281929
38.130190 37.982961 37.839775 37.700839 37.565687 37.434467 37.306718 37.182528
37.061446 36.943505 36.828268 36.715711 36.605417 36.497308 36.390991 36.286337
36.182980 36.080743 35.979291 35.878403 35.777778
36.155556 36.275858 36.396447 36.517653 36.639716 36.763003 36.887705 37.014225
37.142698 37.273557 37.406883 37.543130 37.682321 37.824932 37.970921 38.120782
38.274408 38.432302 38.594293 38.760888 38.931848 39.107682 39.288082 39.473552
39.663715 39.859068 40.059163 40.264484 40.474514 40.689721 40.909519 41.134356
41.363581 41.597617 41.835751 42.078380 42.324730 42.575171 42.828874 43.086180
43.346212 43.609279 43.874462 44.142041 44.411063 44.681779 44.953209 45.225580
45.497890 45.770348 46.041942 46.312861 46.582094 46.849816 47.115027 47.377892
47.637429 47.893798 48.146047 48.394333 48.637742 48.876431 49.109532 49.337203
49.558630 49.773975 49.982480 50.184310 50.378770 50.566029 50.745453 50.917213
51.080740 51.236204 51.383103 51.521598 51.651254 51.772224 51.884135 51.987128
52.080893 52.165552 52.240856 52.306909 52.363516 52.410760 52.448503 52.476801
52.495572 52.504844 52.504588 52.494806 52.475523 52.446710 52.408449 52.360683
52.303548 52.236961 52.161117 52.075908 51.981587 51.878027 51.765540 51.643983
51.513731 51.374627 51.227109 51.071014 50.906844 50.734430 50.554340 50.366405
50.171259 49.968732 49.759522 49.543464 49.321317 49.092919 48.859089 48.619668
48.375526 48.126508 47.873532 47.616441 47.356191 47.092626 46.826729 46.558339
46.288461 46.016922 45.744739 45.471724 45.198897 44.926051 44.654196 44.383105
44.113771 43.845940 43.580579 43.317407 43.057356 42.800116 42.546577 42.296401
42.050427 41.808288 41.570771 41.337480 41.109142 40.885336 40.666726 40.452866
40.244356 40.040730 39.842520 39.649241 39.461359 39.278373 39.100683 38.927777
38.759984 38.596790 38.438455 38.284464 38.135009 37.989579 37.848302 37.710675
37.576761 37.446072 37.318607 37.193897 37.071883 36.952117 36.834484 36.718563
36.604184 36.490958 36.378666 36.266955 36.155556
36.533333 36.665462 36.797930 36.931027 37.065137 37.200497 37.337529 37.476416
37.617613 37.761244 37.907794 38.057322 38.210338 38.366836 38.527344 38.691788
38.860709 39.033962 39.212097 39.394895 39.582911 39.775850 39.974264 40.177784
40.386955 40.601330 40.821444 41.046774 41.277836 41.514033 41.755862 42.002651
42.254872 42.511782 42.773825 43.040192 43.311296 43.586264 43.865477 44.148005
44.434196 44.723070 45.014940 45.308784 45.604884 45.902181 46.200929 46.500043
46.799752 47.098953 47.397854 47.695348 47.991624 48.285580 48.577393 48.865978
49.151502 49.432910 49.710363 49.982843 50.250512 50.512399 50.768667 51.018400
51.261767 51.497911 51.727007 51.948264 52.161861 52.367079 52.564098 52.752269
52.931776 53.102040 53.263243 53.414877 53.557116 53.689524 53.812264 53.924966
54.027778 54.120398 54.202951 54.275200 54.337248 54.388917 54.430283 54.461230
54.481802 54.491942 54.491665 54.480971 54.459842 54.428337 54.386409 54.334172
54.271551 54.198723 54.115581 54.022366 53.918948 53.805631 53.682265 53.549220
53.406331 53.254036 53.092160 52.921209 52.741003 52.552120 52.354377 52.148424
51.934079 51.712064 51.482200 51.245279 51.001128 50.750605 50.493541 50.230857
49.962389 49.689113 49.410867 49.128674 48.842373 48.553025 48.260465 47.965782
47.668803 47.370635 47.071091 46.771285 46.471013 46.171384 45.872172 45.574472
45.278030 44.983918 44.691853 44.402871 44.116659 43.834211 43.555179 43.280507
43.009816 42.743992 42.482625 42.226538 41.975288 41.729635 41.489106 41.254391
41.024993 40.801527 40.583476 40.371380 40.164705 39.963916 39.768465 39.578742
39.394191 39.215128 39.040991 38.872023 38.707665 38.548086 38.392733 38.241706
38.094463 37.951035 37.810897 37.674015 37.539886 37.408410 37.279114 37.151838
37.026138 36.901799 36.778415 36.655714 36.533333
36.911111 37.055302 37.199837 37.345110 37.491411 37.639179 37.788645 37.940286
38.094273 38.251117 38.410920 38.574225 38.741064 38.912002 39.086997 39.266633
39.450793 39.640071 39.834274 40.034000 40.238976 40.449802 40.666121 40.888530
41.116590 41.350884 41.590891 41.837180 42.089147 42.347339 42.611072 42.880867
43.155962 43.436846 43.722684 44.013933 44.309684 44.610361 44.914988 45.223952
45.536219 45.852138 46.170623 46.491988 46.815103 47.140248 47.466260 47.793387
48.120443 48.447650 48.773810 49.099124 49.422393 49.743801 50.062162 50.377648
50.689098 50.996678 51.299263 51.597017 51.888862 52.174965 52.454303 52.727048
52.992241 53.250063 53.499623 53.741110 53.973707 54.197608 54.412076 54.617307
54.812642 54.998278 55.173634 55.338902 55.493578 55.637846 55.771277 55.894039
56.005777 56.106639 56.196338 56.275002 56.342408 56.398656 56.443589 56.477275
56.499621 56.510660 56.510362 56.498725 56.475780 56.441492 56.395953 56.339093
56.271069 56.191781 56.101448 55.999943 55.887553 55.764127 55.630021 55.485065
55.329688 55.163706 54.987624 54.801246 54.605157 54.399157 54.183907 53.959210
53.725805 53.483500 53.233109 52.974448 52.708406 52.434806 52.154609 51.867643
51.574935 51.276319 50.972877 50.664446 50.352157 50.035845 49.716677 49.394482
49.070454 48.744410 48.417557 48.089695 47.762032 47.434347 47.107838 46.782256
46.458776 46.137121 45.818431 45.502396 45.190114 44.881237 44.576815 44.276461
43.981167 43.690510 43.405415 43.125425 42.851395 42.582835 42.320525 42.063945
41.813796 41.569533 41.331778 41.099962 40.874627 40.655186 40.442100 40.234769
40.033573 39.837905 39.648064 39.463442 39.284258 39.109909 38.940535 38.775543
38.614998 38.458323 38.305510 38.156002 38.009721 37.866136 37.725105 37.586126
37.448993 37.313243 37.178611 37.044674 36.911111
37.288889 37.445367 37.602247 37.759872 37.918696 38.079002 38.241286 38.405770
38.572989 38.743093 38.916654 39.093747 39.274971 39.460326 39.650432 39.845209
40.045293 40.250521 40.461538 40.678096 40.900842 41.129442 41.364539 41.605711
41.853592 42.107671 42.368566 42.635677 42.909601 43.189650 43.476395 43.769062
44.068191 44.372924 44.683766 44.999780 45.321432 45.647712 45.979045 46.314352
46.654019 46.996904 47.343353 47.692172 48.043668 48.396603 48.751251 49.106341
49.462115 49.817283 50.172059 50.525148 50.876743 51.225555 51.571761 51.914094
52.252722 52.586410 52.915323 53.238273 53.555427 53.865652 54.169120 54.464767
54.752772 55.032144 55.303073 55.564646 55.817064 56.059495 56.292147 56.514276
56.726090 56.926932 57.117009 57.295747 57.463349 57.619320 57.763852 57.896531
58.017530 58.126509 58.223619 58.308593 58.381554 58.442305 58.490935 58.527314
58.551497 58.563420 58.563101 58.550538 58.525713 58.488690 58.439410 58.378006
58.304383 58.218739 58.120950 58.011283 57.889585 57.756195 57.610938 57.454230
57.285876 57.106373 56.915515 56.713879 56.501254 56.278301 56.044808 55.801523
55.548238 55.285785 55.013964 54.733690 54.444773 54.148208 53.843815 53.532663
53.214581 52.890705 52.560869 52.226267 51.886736 51.543516 51.196441 50.846785
50.494373 50.140501 49.784978 49.429109 49.072682 48.716996 48.361812 48.008412
47.656524 47.307399 46.960731 46.617728 46.278046 45.942843 45.611731 45.285810
44.964652 44.649287 44.339249 44.035493 43.737516 43.446194 43.160987 42.882691
42.610733 42.345823 42.087363 41.835975 41.591038 41.353087 41.121484 40.896676
40.678015 40.465859 40.259555 40.059377 39.864670 39.675624 39.491593 39.312684
39.138263 38.968357 38.802353 38.640200 38.481311 38.325562 38.172394 38.021616
37.872706 37.725404 37.579233 37.433872 37.288889
37.666667 37.835698 38.005134 38.175433 38.346940 38.520164 38.695381 38.873147
39.053667 39.237535 39.424879 39.616327 39.811926 40.012330 40.217504 40.428121
40.644057 40.865999 41.093734 41.327955 41.568355 41.815626 42.069370 42.330270
42.597831 42.872724 43.154359 43.443385 43.739118 44.042179 44.351791 44.668544
44.991568 45.321418 45.657135 45.999233 46.346671 46.699919 47.057856 47.420911
47.787890 48.159176 48.533516 48.911247 49.291064 49.673262 50.056497 50.441026
50.825475 51.210071 51.593424 51.975736 52.355617 52.733248 53.107255 53.477805
53.843556 54.204668 54.559841 54.909238 55.251614 55.587137 55.914632 56.234276
56.544968 56.846900 57.139054 57.421634 57.693712 57.955502 58.206167 58.445929
58.674044 58.890737 59.095355 59.288122 59.468472 59.636621 59.792089 59.935077
60.065188 60.182599 60.286994 60.378521 60.456937 60.522360 60.574619 60.613793
60.639779 60.652620 60.652280 60.638759 60.612089 60.572229 60.519280 60.453159
60.374038 60.281798 60.176681 60.058536 59.927680 59.783934 59.627693 59.458758
59.277607 59.084024 58.878573 58.661031 58.432051 58.191408 57.939847 57.677144
57.404140 57.120619 56.827512 56.524615 56.212949 55.892323 55.563841 55.227324
54.883956 54.533568 54.177409 53.815319 53.448604 53.077103 52.702168 52.323633
51.942880 51.559729 51.175580 50.790233 50.405089 50.019922 49.636119 49.253423
48.873192 48.495134 48.120567 47.749156 47.382170 47.019228 46.661539 46.308678
45.961782 45.620383 45.285541 44.956743 44.634969 44.319663 44.011718 43.710542
43.416937 43.130279 42.851276 42.579277 42.314896 42.057461 41.807491 41.564297
41.328307 41.098821 40.876172 40.659660 40.449527 40.245075 40.046456 39.852984
39.664724 39.481007 39.301815 39.126501 38.954967 38.786597 38.621216 38.458243
38.297432 38.138242 37.980360 37.823295 37.666667
38.044444 38.226279 38.408578 38.591746 38.776305 38.962589 39.151172 39.342313
39.536632 39.734310 39.936003 40.141810 40.352419 40.567840 40.788786 41.015176
41.247739 41.486302 41.731601 41.983367 42.242338 42.508146 42.781524 43.062003
43.350304 43.645855 43.949357 44.260139 44.578875 44.904790 45.238528 45.579216
45.927457 46.282282 46.644254 47.012308 47.386962 47.767065 48.153085 48.543789
48.939598 49.339206 49.742984 50.149564 50.559269 50.970681 51.384080 51.798009
52.212709 52.626700 53.040191 53.451695 53.861395 54.267811 54.671109 55.069835
55.464145 55.852625 56.235429 56.611198 56.980093 57.340820 57.693552 58.037075
58.371575 58.695926 59.010330 59.313756 59.606420 59.887390 60.156894 60.414100
60.659244 60.891593 61.111385 61.317984 61.511624 61.691761 61.858619 62.011743