<?xml version="1.0"?>
<VTKFile type="ImageData" version="0.1" byte_order="LittleEndian">
  <ImageData WholeExtent="0 180 0 180 0 0" Origin="0.0 0.0 0.0" Spacing="0.05 0.05 1">
    <Piece Extent="0 180 0 180 0 0">
      <PointData Scalars="Temperature">
        <DataArray type="Float32" Name="Temperature" format="ascii">
32.000000 32.000000 32.000000 32.000000 32.000000 32.000000 32.000000 32.000000 32.000000 32.000000 32.000000 32.000000 32.000000 32.000000 32.000000 32.000000 32.000000 32.000000 32.000000 32.000000 32.000000 32.000000 32.000000 32.000000 32.000000 32.000000 32.000000 32.000000 32.000000 32.000000 32.000000 32.000000 32.000000 32.000000 32.000000 32.000000 32.000000 32.000000 32.000000 32.000000 32.000000 32.000000 32.000000 32.000000 32.000000 32.000000 32.000000 32.000000 32.000000 32.000000 32.000000 32.000000 32.000000 32.000000 32.000000 32.000000 32.000000 32.000000 32.000000 32.000000 32.000000 32.000000 32.000000 32.000000 32.000000 32.000000 32.000000 32.000000 32.000000 32.000000 32.000000 32.000000 32.000000 32.000000 32.000000 32.000000 32.000000 32.000000 32.000000 32.000000 32.000000 32.000000 32.000000 32.000000 32.000000 32.000000 32.000000 32.000000 32.000000 32.000000 32.000000 32.000000 32.000000 32.000000 32.000000 32.000000 32.000000 32.000000 32.000000 32.000000 32.000000 32.000000 32.000000 32.000000 32.000000 32.000000 32.000000 32.000000 32.000000 32.000000 32.000000 32.000000 32.000000 32.000000 32.000000 32.000000 32.000000 32.000000 32.000000 32.000000 32.000000 32.000000 32.000000 32.000000 32.000000 32.000000 32.000000 32.000000 32.000000 32.000000 32.000000 32.000000 32.000000 32.000000 32.000000 32.000000 32.000000 32.000000 32.000000 32.000000 32.000000 32.000000 32.000000 32.000000 32.000000 32.000000 32.000000 32.000000 32.000000 32.000000 32.000000 32.000000 32.000000 32.000000 32.000000 32.000000 32.000000 32.000000 32.000000 32.000000 32.000000 32.000000 32.000000 32.000000 32.000000 32.000000 32.000000 32.000000 32.000000 32.000000 32.000000 32.000000 32.000000 32.000000 32.000000 32.000000 32.000000 32.000000 32.000000 32.000000 32.000000
32.377778 32.358347 32.338996 32.319806 32.300854 32.282214 32.263959 32.246153 32.228858 32.212129 32.196016 32.180559 32.165794 32.151748 32.138443 32.125891 32.114099 32.103069 32.092793 32.083260 32.074455 32.066356 32.058937 32.052172 32.046029 32.040476 32.035477 32.030999 32.027004 32.023460 32.020328 32.017578 32.015173 32.013086 32.011281 32.009736 32.008420 32.007313 32.006386 32.005626 32.005006 32.004518 32.004136 32.003858 32.003660 32.003543 32.003484 32.003488 32.003533 32.003628 32.003750 32.003910 32.004087 32.004295 32.004510 32.004748 32.004988 32.005245 32.005497 32.005762 32.006018 32.006283 32.006535 32.006792 32.007034 32.007278 32.007505 32.007732 32.007941 32.008147 32.008335 32.008518 32.008684 32.008845 32.008988 32.009126 32.009247 32.009362 32.009462 32.009556 32.009636 32.009710 32.009772 32.009828 32.009873 32.009911 32.009940 32.009963 32.009977 32.009985 32.009985 32.009977 32.009963 32.009940 32.009911 32.009873 32.009828 32.009772 32.009710 32.009636 32.009556 32.009462 32.009362 32.009247 32.009126 32.008988 32.008845 32.008684 32.008518 32.008334 32.008146 32.007940 32.007730 32.007503 32.007276 32.007031 32.006788 32.006529 32.006275 32.006009 32.005750 32.005482 32.005225 32.004963 32.004716 32.004470 32.004245 32.004025 32.003833 32.003654 32.003509 32.003388 32.003311 32.003268 32.003282 32.003345 32.003480 32.003684 32.003978 32.004366 32.004870 32.005496 32.006271 32.007204 32.008325 32.009648 32.011204 32.013014 32.015111 32.017521 32.020280 32.023416 32.026967 32.030965 32.035448 32.040450 32.046008 32.052153 32.058922 32.066342 32.074444 32.083251 32.092785 32.103062 32.114094 32.125886 32.138439 32.151745 32.165791 32.180557 32.196014 32.212128 32.228857 32.246152 32.263958 32.282214 32.300853 32.319806 32.338996 32.358347 32.377778
32.755556 32.716693 32.677992 32.639612 32.601708 32.564429 32.527917 32.492306 32.457716 32.424259 32.392032 32.361119 32.331589 32.303497 32.276887 32.251783 32.228201 32.206139 32.185588 32.166524 32.148914 32.132716 32.117881 32.104350 32.092067 32.080960 32.070966 32.062010 32.054026 32.046937 32.040680 32.035179 32.030377 32.026202 32.022602 32.019513 32.016891 32.014676 32.012837 32.011317 32.010094 32.009117 32.008375 32.007818 32.007445 32.007209 32.007117 32.007124 32.007243 32.007430 32.007705 32.008024 32.008412 32.008824 32.009289 32.009764 32.010278 32.010789 32.011330 32.011857 32.012404 32.012930 32.013469 32.013980 32.014496 32.014981 32.015466 32.015916 32.016361 32.016770 32.017172 32.017536 32.017890 32.018208 32.018515 32.018787 32.019046 32.019274 32.019488 32.019673 32.019845 32.019991 32.020123 32.020233 32.020329 32.020405 32.020468 32.020512 32.020543 32.020558 32.020558 32.020543 32.020512 32.020468 32.020405 32.020329 32.020233 32.020123 32.019991 32.019845 32.019673 32.019488 32.019273 32.019046 32.018787 32.018514 32.018208 32.017890 32.017535 32.017170 32.016769 32.016359 32.015913 32.015462 32.014976 32.014490 32.013971 32.013457 32.012916 32.012385 32.011832 32.011299 32.010749 32.010228 32.009700 32.009209 32.008724 32.008287 32.007869 32.007513 32.007194 32.006953 32.006770 32.006686 32.006687 32.006815 32.007061 32.007469 32.008039 32.008815 32.009805 32.011059 32.012593 32.014461 32.016689 32.019335 32.022437 32.026058 32.030245 32.035066 32.040576 32.046848 32.053946 32.061942 32.070905 32.080909 32.092021 32.104313 32.117847 32.132688 32.148890 32.166504 32.185571 32.206126 32.228189 32.251774 32.276879 32.303491 32.331583 32.361114 32.392029 32.424257 32.457714 32.492304 32.527916 32.564428 32.601707 32.639612 32.677992 32.716693 32.755556
33.133333 33.075040 33.016989 32.959418 32.902562 32.846644 32.791876 32.738459 32.686575 32.636390 32.588049 32.541679 32.497385 32.455249 32.415333 32.377678 32.342305 32.309215 32.278389 32.249795 32.223380 32.199086 32.176834 32.156544 32.138119 32.121466 32.106476 32.093051 32.081076 32.070454 32.061071 32.052835 32.045635 32.039390 32.033995 32.029383 32.025456 32.022161 32.019408 32.017159 32.015333 32.013905 32.012800 32.012008 32.011458 32.011154 32.011026 32.011092 32.011282 32.011623 32.012047 32.012591 32.013185 32.013871 32.014581 32.015362 32.016147 32.016985 32.017808 32.018669 32.019502 32.020360 32.021179 32.022012 32.022797 32.023587 32.024323 32.025055 32.025731 32.026398 32.027006 32.027599 32.028136 32.028654 32.029118 32.029561 32.029953 32.030324 32.030647 32.030950 32.031209 32.031447 32.031646 32.031825 32.031970 32.032094 32.032189 32.032262 32.032308 32.032332 32.032332 32.032308 32.032262 32.032189 32.032094 32.031970 32.031825 32.031646 32.031447 32.031208 32.030949 32.030647 32.030324 32.029953 32.029561 32.029117 32.028654 32.028135 32.027598 32.027004 32.026395 32.025728 32.025051 32.024317 32.023579 32.022787 32.021999 32.021162 32.020338 32.019474 32.018633 32.017761 32.016925 32.016072 32.015267 32.014461 32.013721 32.012997 32.012358 32.011760 32.011268 32.010847 32.010560 32.010380 32.010371 32.010513 32.010873 32.011442 32.012287 32.013413 32.014892 32.016740 32.019035 32.021810 32.025147 32.029094 32.033743 32.039157 32.045433 32.052650 32.060913 32.070311 32.080954 32.092941 32.106384 32.121383 32.138050 32.156483 32.176784 32.199042 32.223344 32.249763 32.278363 32.309193 32.342287 32.377663 32.415321 32.455238 32.497376 32.541673 32.588044 32.636386 32.686572 32.738456 32.791874 32.846642 32.902561 32.959417 33.016988 33.075040 33.133333
33.511111 33.433387 33.355985 33.279225 33.203416 33.128859 33.055836 32.984613 32.915435 32.848522 32.784068 32.722242 32.663183 32.607003 32.553783 32.503578 32.456416 32.412297 32.371199 32.333075 32.297861 32.265470 32.235808 32.208757 32.184200 32.162000 32.142026 32.124130 32.108181 32.094025 32.081536 32.070562 32.060990 32.052674 32.045515 32.039379 32.034185 32.029808 32.026188 32.023209 32.020834 32.018953 32.017549 32.016520 32.015866 32.015490 32.015409 32.015529 32.015880 32.016370 32.017043 32.017804 32.018709 32.019663 32.020727 32.021809 32.022975 32.024131 32.025349 32.026536 32.027766 32.028947 32.030154 32.031298 32.032455 32.033539 32.034623 32.035628 32.036623 32.037536 32.038431 32.039244 32.040034 32.040743 32.041425 32.042031 32.042608 32.043114 32.043591 32.044003 32.044384 32.044709 32.045003 32.045247 32.045460 32.045629 32.045768 32.045867 32.045936 32.045968 32.045968 32.045936 32.045867 32.045768 32.045629 32.045460 32.045246 32.045003 32.044709 32.044384 32.044002 32.043590 32.043114 32.042608 32.042031 32.041424 32.040742 32.040032 32.039242 32.038429 32.037533 32.036618 32.035622 32.034615 32.033529 32.032441 32.031281 32.030131 32.028918 32.027728 32.026488 32.025287 32.024052 32.022874 32.021682 32.020568 32.019462 32.018459 32.017494 32.016659 32.015898 32.015300 32.014820 32.014547 32.014446 32.014606 32.015007 32.015739 32.016796 32.018275 32.020186 32.022631 32.025641 32.029324 32.033731 32.038981 32.045146 32.052353 32.060694 32.070308 32.081303 32.093827 32.108002 32.123979 32.141890 32.161886 32.184099 32.208673 32.235734 32.265409 32.297807 32.333031 32.371161 32.412266 32.456390 32.503557 32.553765 32.606988 32.663171 32.722233 32.784060 32.848516 32.915430 32.984610 33.055833 33.128856 33.203415 33.279224 33.355984 33.433386 33.511111
33.888889 33.791734 33.694982 33.599032 33.504271 33.411075 33.319796 33.230769 33.144296 33.060656 32.980089 32.902808 32.828985 32.758761 32.692238 32.629485 32.570534 32.515390 32.464019 32.416371 32.372357 32.331878 32.294805 32.261004 32.230314 32.202580 32.177622 32.155275 32.135350 32.117684 32.102087 32.088409 32.076462 32.066114 32.057190 32.049579 32.043115 32.037715 32.033226 32.029589 32.026661 32.024411 32.022704 32.021533 32.020771 32.020432 32.020392 32.020687 32.021193 32.021965 32.022878 32.023999 32.025206 32.026576 32.027986 32.029521 32.031059 32.032690 32.034292 32.035961 32.037574 32.039231 32.040813 32.042417 32.043930 32.045449 32.046865 32.048273 32.049572 32.050850 32.052017 32.053155 32.054183 32.055176 32.056064 32.056913 32.057662 32.058371 32.058989 32.059567 32.060062 32.060516 32.060897 32.061238 32.061515 32.061752 32.061931 32.062070 32.062159 32.062204 32.062204 32.062159 32.062070 32.061931 32.061752 32.061515 32.061238 32.060897 32.060516 32.060061 32.059566 32.058989 32.058371 32.057662 32.056912 32.056063 32.055175 32.054182 32.053153 32.052014 32.050846 32.049566 32.048265 32.046856 32.045436 32.043914 32.042395 32.040785 32.039195 32.037527 32.035900 32.034214 32.032591 32.030933 32.029363 32.027786 32.026326 32.024894 32.023611 32.022398 32.021374 32.020469 32.019801 32.019315 32.019126 32.019196 32.019641 32.020441 32.021714 32.023462 32.025810 32.028780 32.032507 32.037039 32.042519 32.049022 32.056704 32.065665 32.076073 32.088052 32.101782 32.117407 32.135114 32.155063 32.177443 32.202420 32.230181 32.260886 32.294708 32.331792 32.372287 32.416310 32.463970 32.515347 32.570500 32.629456 32.692215 32.758741 32.828970 32.902795 32.980079 33.060647 33.144290 33.230763 33.319792 33.411071 33.504269 33.599030 33.694981 33.791733 33.888889
34.266667 34.150081 34.033979 33.918839 33.805127 33.693291 33.583758 33.476925 33.373160 33.272791 33.176113 33.083377 32.994792 32.910525 32.830701 32.755399 32.684664 32.618494 32.556858 32.499684 32.446878 32.398310 32.353839 32.313286 32.276480 32.243212 32.213291 32.186491 32.162619 32.141442 32.122775 32.106388 32.092114 32.079733 32.069101 32.060012 32.052351 32.045925 32.040653 32.036352 32.032975 32.030350 32.028459 32.027141 32.026407 32.026098 32.026252 32.026714 32.027544 32.028587 32.029922 32.031393 32.033096 32.034871 32.036827 32.038803 32.040918 32.043010 32.045203 32.047338 32.049540 32.051656 32.053811 32.055857 32.057917 32.059850 32.061778 32.063567 32.065334 32.066957 32.068545 32.069989 32.071387 32.072645 32.073853 32.074926 32.075946 32.076842 32.077683 32.078411 32.079085 32.079657 32.080177 32.080606 32.080983 32.081280 32.081525 32.081700 32.081820 32.081878 32.081878 32.081820 32.081700 32.081525 32.081280 32.080983 32.080606 32.080176 32.079657 32.079085 32.078411 32.077683 32.076841 32.075945 32.074925 32.073851 32.072644 32.071385 32.069986 32.068542 32.066953 32.065328 32.063559 32.061766 32.059835 32.057897 32.055831 32.053778 32.051612 32.049484 32.047265 32.045110 32.042891 32.040767 32.038613 32.036587 32.034571 32.032721 32.030928 32.029347 32.027878 32.026674 32.025651 32.024959 32.024531 32.024517 32.024871 32.025744 32.027114 32.029136 32.031817 32.035318 32.039675 32.045059 32.051540 32.059300 32.068440 32.079158 32.091585 32.105933 32.122359 32.141087 32.162298 32.186220 32.213047 32.243008 32.276299 32.313136 32.353706 32.398201 32.446783 32.499606 32.556790 32.618439 32.684617 32.755362 32.830669 32.910500 32.994771 33.083360 33.176099 33.272780 33.373151 33.476918 33.583753 33.693287 33.805124 33.918837 34.033977 34.150080 34.266667
34.644444 34.508428 34.372976 34.238647 34.105983 33.975509 33.847721 33.723084 33.602025 33.484930 33.372141 33.263951 33.160604 33.062297 32.969171 32.881326 32.798806 32.721617 32.649714 32.583024 32.521427 32.464783 32.412911 32.365626 32.322701 32.283923 32.249037 32.217818 32.189996 32.165350 32.143610 32.124570 32.107965 32.093618 32.081275 32.070792 32.061929 32.054579 32.048517 32.043676 32.039842 32.036986 32.034904 32.033603 32.032888 32.032795 32.033133 32.033969 32.035111 32.036652 32.038396 32.040459 32.042642 32.045076 32.047562 32.050242 32.052916 32.055735 32.058499 32.061366 32.064136 32.066971 32.069676 32.072413 32.074996 32.077580 32.079993 32.082385 32.084594 32.086762 32.088744 32.090672 32.092416 32.094096 32.095600 32.097034 32.098302 32.099499 32.100543 32.101516 32.102351 32.103117 32.103760 32.104334 32.104800 32.105198 32.105500 32.105734 32.105882 32.105959 32.105959 32.105882 32.105734 32.105500 32.105197 32.104800 32.104334 32.103759 32.103117 32.102351 32.101516 32.100543 32.099498 32.098301 32.097033 32.095598 32.094095 32.092414 32.090669 32.088740 32.086756 32.084586 32.082374 32.079980 32.077563 32.074972 32.072383 32.069637 32.066919 32.064070 32.061281 32.058391 32.055597 32.052740 32.050020 32.047282 32.044726 32.042205 32.039916 32.037725 32.035825 32.034097 32.032729 32.031625 32.030968 32.030683 32.030955 32.031736 32.033211 32.035364 32.038385 32.042293 32.047287 32.053421 32.060908 32.069840 32.080443 32.092850 32.107300 32.123960 32.143087 32.164876 32.189592 32.217455 32.248731 32.283650 32.322473 32.365424 32.412744 32.464637 32.521307 32.582920 32.649629 32.721544 32.798747 32.881276 32.969131 33.062263 33.160577 33.263928 33.372123 33.484916 33.602013 33.723075 33.847714 33.975503 34.105979 34.238644 34.372974 34.508427 34.644444
35.022222 34.866775 34.711974 34.558455 34.406840 34.257728 34.111686 33.969244 33.830893 33.697072 33.568173 33.444530 33.326424 33.214076 33.107655 33.007265 32.912967 32.824758 32.742599 32.666392 32.596016 32.531295 32.472043 32.418023 32.369008 32.324717 32.284902 32.249260 32.217535 32.189417 32.164664 32.142966 32.124109 32.107790 32.093832 32.081949 32.072002 32.063721 32.057012 32.051621 32.047499 32.044401 32.042323 32.041029 32.040554 32.040665 32.041436 32.042632 32.044359 32.046381 32.048831 32.051467 32.054444 32.057517 32.060860 32.064221 32.067789 32.071311 32.074982 32.078553 32.082223 32.085747 32.089326 32.092723 32.096135 32.099338 32.102524 32.105484 32.108400 32.111080 32.113695 32.116075 32.118376 32.120447 32.122430 32.124195 32.125868 32.127339 32.128717 32.129911 32.131013 32.131951 32.132799 32.133502 32.134117 32.134604 32.135003 32.135289 32.135485 32.135579 32.135579 32.135485 32.135289 32.135003 32.134604 32.134117 32.133502 32.132799 32.131951 32.131013 32.129910 32.128716 32.127338 32.125867 32.124194 32.122428 32.120445 32.118373 32.116071 32.113691 32.111073 32.108391 32.105472 32.102509 32.099318 32.096108 32.092688 32.089280 32.085689 32.082147 32.078456 32.074858 32.071152 32.067588 32.063968 32.060540 32.057117 32.053945 32.050846 32.048063 32.045436 32.043200 32.041215 32.039712 32.038577 32.038035 32.038002 32.038702 32.040087 32.042381 32.045575 32.049899 32.055387 32.062279 32.070653 32.080764 32.092734 32.106834 32.123229 32.142208 32.163973 32.188827 32.217002 32.248808 32.284498 32.324378 32.368706 32.417773 32.471823 32.531114 32.595858 32.666263 32.742486 32.824667 32.912889 33.007203 33.107602 33.214034 33.326389 33.444502 33.568150 33.697054 33.830878 33.969233 34.111677 34.257721 34.406835 34.558451 34.711971 34.866774 35.022222
35.400000 35.225123 35.050972 34.878264 34.707699 34.539949 34.375652 34.215408 34.059765 33.909220 33.764211 33.625117 33.492252 33.365869 33.246150 33.133224 33.027146 32.927928 32.835511 32.749803 32.670648 32.597870 32.531235 32.470510 32.415400 32.365637 32.320889 32.280875 32.245244 32.213720 32.185949 32.161679 32.140562 32.122380 32.106800 32.093649 32.082609 32.073559 32.066193 32.060445 32.056023 32.052909 32.050822 32.049793 32.049544 32.050152 32.051338 32.053220 32.055514 32.058372 32.061505 32.065093 32.068841 32.072953 32.077125 32.081580 32.086011 32.090654 32.095200 32.099892 32.104425 32.109047 32.113460 32.117909 32.122110 32.126302 32.130219 32.134091 32.137670 32.141174 32.144381 32.147492 32.150308 32.153015 32.155439 32.157746 32.159787 32.161710 32.163389 32.164950 32.166291 32.167517 32.168548 32.169467 32.170214 32.170850 32.171334 32.171708 32.171946 32.172069 32.172069 32.171946 32.171708 32.171334 32.170850 32.170214 32.169467 32.168548 32.167517 32.166291 32.164949 32.163388 32.161709 32.159786 32.157744 32.155437 32.153013 32.150305 32.147488 32.144375 32.141167 32.137660 32.134078 32.130202 32.126280 32.122080 32.117870 32.113409 32.108981 32.104340 32.099783 32.095060 32.090476 32.085785 32.081295 32.076766 32.072503 32.068280 32.064396 32.060641 32.057309 32.054209 32.051626 32.049399 32.047803 32.046710 32.046388 32.046748 32.048056 32.050265 32.053643 32.058191 32.064183 32.071671 32.080942 32.092098 32.105442 32.121128 32.139475 32.160686 32.185096 32.212946 32.244585 32.280283 32.320390 32.365192 32.415028 32.470181 32.530963 32.597632 32.670452 32.749633 32.835373 32.927809 33.027050 33.133142 33.246085 33.365814 33.492209 33.625081 33.764182 33.909196 34.059746 34.215393 34.375641 34.539940 34.707692 34.878260 35.050969 35.225122 35.400000
35.777778 35.583471 35.389971 35.198075 35.008559 34.822171 34.639622 34.461575 34.288641 34.121372 33.960256 33.805712 33.658093 33.517673 33.384665 33.259200 33.141355 33.031126 32.928467 32.833256 32.745343 32.664506 32.590520 32.523085 32.461923 32.406682 32.357057 32.312666 32.273201 32.238265 32.207571 32.180721 32.157463 32.137409 32.120355 32.105927 32.093975 32.084142 32.076338 32.070220 32.065755 32.062610 32.060812 32.060031 32.060349 32.061434 32.063418 32.065962 32.069242 32.072911 32.077180 32.081694 32.086692 32.091810 32.097313 32.102826 32.108634 32.114358 32.120293 32.126063 32.131968 32.137641 32.143381 32.148832 32.154291 32.159420 32.164507 32.169236 32.173882 32.178157 32.182318 32.186106 32.189761 32.193052 32.196197 32.198998 32.201646 32.203977 32.206155 32.208044 32.209785 32.211266 32.212604 32.213713 32.214682 32.215449 32.216078 32.216528 32.216836 32.216985 32.216985 32.216836 32.216528 32.216078 32.215449 32.214682 32.213713 32.212604 32.211266 32.209784 32.208044 32.206155 32.203976 32.201646 32.198996 32.196195 32.193050 32.189757 32.186102 32.182312 32.178148 32.173871 32.169221 32.164487 32.159395 32.154258 32.148788 32.143324 32.137567 32.131874 32.125941 32.120137 32.114160 32.108383 32.102509 32.096914 32.091310 32.086068 32.080919 32.076221 32.071729 32.067792 32.064191 32.061263 32.058824 32.057200 32.056248 32.056286 32.057217 32.059357 32.062662 32.067447 32.073725 32.081822 32.091807 32.104019 32.118589 32.135870 32.156050 32.179501 32.206461 32.237315 32.272344 32.311939 32.356407 32.406136 32.461438 32.522682 32.590165 32.664214 32.745088 32.833048 32.928287 33.030981 33.141230 33.259100 33.384580 33.517606 33.658036 33.805667 33.960219 34.121343 34.288617 34.461556 34.639607 34.822160 35.008550 35.198069 35.389967 35.583469 35.777778
36.155556 35.941819 35.728971 35.517886 35.309420 35.104396 34.903595 34.707746 34.517522 34.333532 34.156309 33.986320 33.823945 33.669497 33.523198 33.385207 33.255592 33.134368 33.021465 32.916773 32.820099 32.731236 32.649894 32.575794 32.508574 32.447915 32.393407 32.344717 32.301411 32.263165 32.229538 32.200238 32.174828 32.153066 32.134524 32.119021 32.106142 32.095773 32.087513 32.081315 32.076789 32.073954 32.072424 32.072283 32.073144 32.075149 32.077903 32.081601 32.085837 32.090852 32.096224 32.102235 32.108447 32.115173 32.121964 32.129156 32.136293 32.143727 32.151000 32.158474 32.165695 32.173031 32.180037 32.187078 32.193732 32.200352 32.206542 32.212643 32.218288 32.223801 32.228849 32.233734 32.238160 32.242403 32.246206 32.249816 32.253014 32.256018 32.258643 32.261078 32.263173 32.265082 32.266690 32.268120 32.269283 32.270272 32.271025 32.271605 32.271975 32.272166 32.272166 32.271975 32.271605 32.271025 32.270272 32.269283 32.268120 32.266690 32.265082 32.263172 32.261078 32.258643 32.256017 32.253013 32.249815 32.246204 32.242401 32.238156 32.233729 32.228843 32.223792 32.218276 32.212627 32.206521 32.200324 32.193695 32.187031 32.179975 32.172950 32.165591 32.158340 32.150829 32.143509 32.136016 32.128807 32.121525 32.114623 32.107760 32.101382 32.095169 32.089552 32.084242 32.079653 32.075532 32.072277 32.069680 32.068121 32.067445 32.068022 32.069752 32.073002 32.077733 32.084314 32.092774 32.103489 32.116555 32.132363 32.151076 32.173100 32.198660 32.228180 32.261936 32.300363 32.343777 32.392613 32.447208 32.507983 32.575272 32.649461 32.730858 32.819788 32.916503 33.021246 33.134180 33.255439 33.385077 33.523094 33.669409 33.823876 33.986262 34.156264 34.333494 34.517493 34.707723 34.903577 35.104382 35.309410 35.517879 35.728966 35.941817 36.155556
36.533333 36.300168 36.067971 35.837699 35.610285 35.386624 35.167572 34.953922 34.746411 34.545699 34.352374 34.166938 33.989816 33.821338 33.661760 33.511240 33.369872 33.237652 33.114528 33.000352 32.894950 32.798056 32.709404 32.628633 32.555418 32.489333 32.430025 32.377028 32.329989 32.288423 32.252003 32.220241 32.192858 32.169371 32.149565 32.132967 32.119434 32.108508 32.100118 32.093818 32.089615 32.087063 32.086248 32.086719 32.088631 32.091523 32.095616 32.100433 32.106250 32.112571 32.119721 32.127184 32.135324 32.143608 32.152432 32.161248 32.170475 32.179558 32.188932 32.198044 32.207334 32.216259 32.225262 32.233816 32.242357 32.250388 32.258329 32.265718 32.272958 32.279624 32.286096 32.291993 32.297666 32.302780 32.307653 32.311997 32.316094 32.319703 32.323066 32.325987 32.328670 32.330957 32.333017 32.334726 32.336216 32.337398 32.338363 32.339055 32.339530 32.339758 32.339758 32.339530 32.339055 32.338363 32.337398 32.336216 32.334726 32.333017 32.330957 32.328670 32.325986 32.323066 32.319702 32.316093 32.311996 32.307651 32.302777 32.297662 32.291988 32.286088 32.279614 32.272945 32.265701 32.258306 32.250357 32.242317 32.233764 32.225194 32.216172 32.207221 32.197898 32.188746 32.179321 32.170173 32.160867 32.151953 32.143008 32.134575 32.126253 32.118570 32.111153 32.104510 32.098308 32.093031 32.088391 32.084851 32.082179 32.080816 32.080593 32.081938 32.084748 32.089448 32.096007 32.104851 32.116024 32.129962 32.146787 32.166946 32.190636 32.218319 32.250257 32.286926 32.328642 32.375884 32.429004 32.488474 32.554657 32.627998 32.708847 32.797596 32.894550 33.000024 33.114245 33.237422 33.369676 33.511082 33.661626 33.821232 33.989727 34.166868 34.352315 34.545653 34.746373 34.953893 35.167548 35.386607 35.610271 35.837690 36.067965 36.300165 36.533333
36.911111 36.658518 36.406973 36.157514 35.911151 35.668856 35.431552 35.200105 34.975306 34.757877 34.548450 34.347575 34.155704 33.973207 33.800348 33.637316 33.484192 33.340999 33.207651 33.084025 32.969891 32.865013 32.769044 32.681667 32.602449 32.531026 32.466908 32.409719 32.358935 32.314199 32.274971 32.240939 32.211565 32.186596 32.165503 32.148110 32.133897 32.122774 32.114228 32.108255 32.104345 32.102580 32.102445 32.104105 32.107030 32.111462 32.116852 32.123510 32.130861 32.139275 32.148150 32.157907 32.167918 32.178643 32.189435 32.200785 32.212030 32.223686 32.235082 32.246748 32.258021 32.269433 32.280338 32.291264 32.301595 32.311845 32.321436 32.330862 32.339591 32.348093 32.355883 32.363401 32.370219 32.376737 32.382584 32.388119 32.393027 32.397623 32.401646 32.405365 32.408569 32.411482 32.413937 32.416115 32.417889 32.419393 32.420542 32.421423 32.421987 32.422277 32.422277 32.421987 32.421423 32.420542 32.419393 32.417888 32.416115 32.413937 32.411482 32.408569 32.405365 32.401645 32.397622 32.393025 32.388117 32.382581 32.376734 32.370215 32.363396 32.355875 32.348082 32.339577 32.330844 32.321411 32.311812 32.301552 32.291208 32.280265 32.269338 32.257898 32.246591 32.234881 32.223429 32.211704 32.200373 32.188916 32.177993 32.167106 32.156899 32.146903 32.137739 32.128976 32.121208 32.114051 32.108069 32.102936 32.099186 32.096561 32.095570 32.096028 32.098430 32.102669 32.109232 32.118098 32.129754 32.144266 32.162129 32.183493 32.208867 32.238480 32.272853 32.312284 32.357301 32.408255 32.465670 32.529926 32.601527 32.680855 32.768370 32.864424 32.969406 33.083605 33.207308 33.340705 33.483955 33.637114 33.800186 33.973071 34.155596 34.347485 34.548379 34.757819 34.975261 35.200068 35.431524 35.668834 35.911135 36.157503 36.406966 36.658514 36.911111
37.288889 37.016868 36.745977 36.477331 36.212021 35.951092 35.695540 35.446294 35.204212 34.970066 34.744543 34.528228 34.321619 34.125102 33.938978 33.763431 33.598575 33.444405 33.300867 33.167786 33.044968 32.932099 32.828882 32.734889 32.649759 32.572987 32.504180 32.442785 32.388415 32.340490 32.298661 32.262338 32.231232 32.204756 32.182700 32.164483 32.149988 32.138636 32.130408 32.124726 32.121670 32.120651 32.121846 32.124650 32.129329 32.135252 32.142767 32.151211 32.161005 32.171452 32.183033 32.195016 32.207936 32.221028 32.234868 32.248669 32.263036 32.277170 32.291697 32.305815 32.320161 32.333949 32.347812 32.360992 32.374115 32.386460 32.398635 32.409971 32.421047 32.431254 32.441135 32.450147 32.458791 32.466590 32.474001 32.480613 32.486832 32.492313 32.497410 32.501838 32.505896 32.509358 32.512469 32.515053 32.517299 32.519083 32.520538 32.521582 32.522296 32.522640 32.522640 32.522296 32.521582 32.520538 32.519083 32.517299 32.515053 32.512468 32.509358 32.505896 32.501837 32.497409 32.492312 32.486831 32.480611 32.473999 32.466587 32.458786 32.450141 32.441127 32.431243 32.421032 32.409951 32.398608 32.386425 32.374068 32.360932 32.347733 32.333846 32.320029 32.305646 32.291479 32.276893 32.262685 32.248225 32.234309 32.220327 32.207062 32.193931 32.181690 32.169797 32.158976 32.148731 32.139750 32.131597 32.124920 32.119354 32.115510 32.113102 32.112714 32.114145 32.117960 32.124052 32.132973 32.144716 32.159830 32.178407 32.201001 32.227798 32.259363 32.295964 32.338175 32.386334 32.441015 32.502602 32.571657 32.648584 32.733909 32.828022 32.931389 33.044351 33.167279 33.300431 33.444051 33.598272 33.763187 33.938771 34.124937 34.321481 34.528119 34.744452 34.969995 35.204154 35.446249 35.695504 35.951065 36.212000 36.477317 36.745967 37.016863 37.288889
37.666667 37.375219 37.084981 36.797151 36.512894 36.233333 35.959533 35.692493 35.433128 35.182271 34.940651 34.708907 34.487558 34.277037 34.077645 33.889607 33.713015 33.547903 33.394169 33.251682 33.120173 32.999382 32.888904 32.788391 32.697335 32.615340 32.541828 32.476394 32.418419 32.367523 32.323068 32.284731 32.251866 32.224231 32.201180 32.182569 32.167752 32.156692 32.148741 32.143970 32.141719 32.142172 32.144645 32.149426 32.155800 32.164153 32.173729 32.185001 32.197168 32.210779 32.224988 32.240408 32.256150 32.272879 32.289670 32.307231 32.324613 32.342551 32.360088 32.377975 32.395264 32.412711 32.429391 32.446056 32.461821 32.477419 32.492023 32.506338 32.519603 32.532485 32.544300 32.555669 32.565986 32.575822 32.584652 32.592988 32.600384 32.607293 32.613343 32.618923 32.623733 32.628096 32.631776 32.635032 32.637687 32.639934 32.641651 32.642967 32.643809 32.644242 32.644242 32.643809 32.642967 32.641651 32.639934 32.637687 32.635032 32.631776 32.628096 32.623733 32.618923 32.613343 32.607292 32.600383 32.592986 32.584649 32.575819 32.565981 32.555662 32.544291 32.532473 32.519586 32.506317 32.491995 32.477381 32.461771 32.445991 32.429307 32.412601 32.395122 32.377793 32.359855 32.342254 32.324237 32.306756 32.289072 32.272129 32.255214 32.239246 32.223549 32.209007 32.194993 32.182344 32.170497 32.160238 32.151076 32.143751 32.137856 32.134084 32.132123 32.132633 32.135403 32.141067 32.149522 32.161389 32.176676 32.196000 32.219476 32.247724 32.280963 32.319816 32.364590 32.415911 32.474151 32.539928 32.613655 32.695921 32.787147 32.887870 32.998480 33.119430 33.251040 33.393645 33.547453 33.712652 33.889298 34.077397 34.276828 34.487393 34.708768 34.940542 35.182181 35.433058 35.692436 35.959490 36.233299 36.512869 36.797134 37.084970 37.375213 37.666667