# vtk DataFile Version 3.0
Steady-state temperature (Jacobi)
ASCII
DATASET STRUCTURED_POINTS
DIMENSIONS 181 181 1
ORIGIN 0.0 0.0 0.0
SPACING 0.05 0.05 1.0
POINT_DATA 32761
SCALARS Temperature float 1
LOOKUP_TABLE default
32.000000 32.000000 32.000000 32.000000 32.000000 32.000000 32.000000 32.000000
32.000000 32.000000 32.000000 32.000000 32.000000 32.000000 32.000000 32.000000
32.000000 32.000000 32.000000 32.000000 32.000000 32.000000 32.000000 32.000000
32.000000 32.000000 32.000000 32.000000 32.000000 32.000000 32.000000 32.000000
32.000000 32.000000 32.000000 32.000000 32.000000 32.000000 32.000000 32.000000
32.000000 32.000000 32.000000 32.000000 32.000000 32.000000 32.000000 32.000000
32.000000 32.000000 32.000000 32.000000 32.000000 32.000000 32.000000 32.000000
32.000000 32.000000 32.000000 32.000000 32.000000 32.000000 32.000000 32.000000
32.000000 32.000000 32.000000 32.000000 32.000000 32.000000 32.000000 32.000000
32.000000 32.000000 32.000000 32.000000 32.000000 32.000000 32.000000 32.000000
32.000000 32.000000 32.000000 32.000000 32.000000 32.000000 32.000000 32.000000
32.000000 32.000000 32.000000 32.000000 32.000000 32.000000 32.000000 32.000000
32.000000 32.000000 32.000000 32.000000 32.000000 32.000000 32.000000 32.000000
32.000000 32.000000 32.000000 32.000000 32.000000 32.000000 32.000000 32.000000
32.000000 32.000000 32.000000 32.000000 32.000000 32.000000 32.000000 32.000000
32.000000 32.000000 32.000000 32.000000 32.000000 32.000000 32.000000 32.000000
32.000000 32.000000 32.000000 32.000000 32.000000 32.000000 32.000000 32.000000
32.000000 32.000000 32.000000 32.000000 32.000000 32.000000 32.000000 32.000000
32.000000 32.000000 32.000000 32.000000 32.000000 32.000000 32.000000 32.000000
32.000000 32.000000 32.000000 32.000000 32.000000 32.000000 32.000000 32.000000
32.000000 32.000000 32.000000 32.000000 32.000000 32.000000 32.000000 32.000000
32.000000 32.000000 32.000000 32.000000 32.000000 32.000000 32.000000 32.000000
32.000000 32.000000 32.000000 32.000000 32.000000
32.377778 32.365266 32.352785 32.340370 32.328049 32.315858 32.303822 32.291978
32.280348 32.268970 32.257860 32.247059 32.236578 32.226457 32.216701 32.207353
32.198411 32.189918 32.181864 32.174297 32.167197 32.160612 32.154517 32.148960
32.143907 32.139410 32.135424 32.132004 32.129097 32.126760 32.124929 32.123666
32.122897 32.122687 32.122952 32.123760 32.125019 32.126800 32.129001 32.131697
32.134776 32.138320 32.142205 32.146517 32.151127 32.156122 32.161366 32.166950
32.172732 32.178807 32.185027 32.191489 32.198045 32.204791 32.211577 32.218504
32.225419 32.232423 32.239367 32.246352 32.253230 32.260104 32.266830 32.273507
32.280000 32.286405 32.292593 32.298660 32.304482 32.310152 32.315557 32.320783
32.325726 32.330470 32.334919 32.339149 32.343078 32.346773 32.350162 32.353306
32.356143 32.358725 32.361000 32.363013 32.364722 32.366162 32.367302 32.368166
32.368736 32.369024 32.369023 32.368733 32.368161 32.367295 32.366152 32.364710
32.362997 32.360982 32.358702 32.356117 32.353275 32.350126 32.346730 32.343028
32.339092 32.334852 32.330393 32.325638 32.320682 32.315441 32.310020 32.304332
32.298488 32.292398 32.286184 32.279749 32.273224 32.266511 32.259745 32.252827
32.245900 32.238861 32.231858 32.224789 32.217803 32.210799 32.203929 32.197091
32.190436 32.183866 32.177530 32.171331 32.165414 32.159687 32.154289 32.149130
32.144346 32.139849 32.135767 32.132017 32.128719 32.125794 32.123353 32.121320
32.119800 32.118719 32.118171 32.118089 32.118557 32.119510 32.121023 32.123036
32.125613 32.128697 32.132343 32.136498 32.141208 32.146420 32.152173 32.158418
32.165182 32.172419 32.180150 32.188329 32.196969 32.206026 32.215505 32.225365
32.235603 32.246178 32.257084 32.268279 32.279751 32.291460 32.303388 32.315498
32.327767 32.340159 32.352646 32.365196 32.377778
32.755556 32.730538 32.705586 32.680760 32.656130 32.631750 32.607693 32.584006
32.560765 32.538007 32.515813 32.494208 32.473275 32.453028 32.433552 32.414849
32.397007 32.380013 32.363957 32.348812 32.334671 32.321490 32.309368 32.298241
32.288213 32.279204 32.271321 32.264466 32.258752 32.254060 32.250510 32.247965
32.246552 32.246110 32.246777 32.248372 32.251038 32.254577 32.259139 32.264507
32.270838 32.277898 32.285853 32.294449 32.303861 32.313822 32.324511 32.335649
32.347421 32.359539 32.372192 32.385085 32.398411 32.411870 32.425660 32.439477
32.453523 32.467495 32.481596 32.495528 32.509494 32.523202 32.536855 32.550171
32.563349 32.576121 32.588680 32.600774 32.612590 32.623892 32.634859 32.645273
32.655305 32.664756 32.673784 32.682212 32.690184 32.697544 32.704422 32.710683
32.716439 32.721580 32.726198 32.730205 32.733674 32.736539 32.738854 32.740574
32.741731 32.742303 32.742301 32.741725 32.740563 32.738839 32.736520 32.733650
32.730174 32.726161 32.721535 32.716387 32.710621 32.704349 32.697459 32.690085
32.682097 32.673652 32.664603 32.655130 32.645072 32.634628 32.623627 32.612289
32.600431 32.588290 32.575678 32.562848 32.549605 32.536217 32.522484 32.508688
32.494624 32.480584 32.466365 32.452263 32.438076 32.424104 32.410145 32.396504
32.382979 32.369871 32.356986 32.344619 32.332578 32.321153 32.310157 32.299868
32.290107 32.281140 32.272794 32.265320 32.258552 32.252725 32.247683 32.243641
32.240451 32.238311 32.237079 32.236936 32.237747 32.239672 32.242586 32.246630
32.251683 32.257867 32.265071 32.273396 32.282736 32.293175 32.304612 32.317113
32.330582 32.345068 32.360478 32.376845 32.394081 32.412203 32.431125 32.450850
32.471296 32.492452 32.514237 32.536631 32.559554 32.582973 32.606813 32.631033
32.655558 32.680338 32.705304 32.730399 32.755556
33.133333 33.095826 33.058413 33.021198 32.984265 32.947724 32.911648 32.876153
32.841300 32.807207 32.773922 32.741568 32.710173 32.679867 32.650659 32.622681
32.595924 32.570522 32.546445 32.523832 32.502628 32.482979 32.464804 32.448254
32.433223 32.419870 32.408059 32.397958 32.389402 32.382569 32.377264 32.373674
32.371575 32.371165 32.372190 32.374858 32.378886 32.384494 32.391368 32.399742
32.409274 32.420208 32.432177 32.445436 32.459594 32.474915 32.490990 32.508092
32.525793 32.544375 32.563397 32.583149 32.603180 32.623785 32.644509 32.665652
32.686756 32.708127 32.729311 32.750614 32.771590 32.792545 32.813047 32.833397
32.853182 32.872697 32.891548 32.910024 32.927756 32.945020 32.961473 32.977380
32.992427 33.006861 33.020399 33.033269 33.045220 33.056460 33.066768 33.076329
33.084955 33.092804 33.099724 33.105842 33.111039 33.115414 33.118881 33.121506
33.123239 33.124113 33.124110 33.123230 33.121491 33.118859 33.115384 33.111002
33.105796 33.099668 33.092738 33.084876 33.076235 33.066659 33.056332 33.045072
33.033097 33.020200 33.006632 32.992163 32.977078 32.961126 32.944623 32.927303
32.909509 32.890963 32.872033 32.852431 32.832549 32.812090 32.791468 32.770381
32.749258 32.727794 32.706433 32.684867 32.663550 32.642175 32.621199 32.600319
32.579990 32.559916 32.540546 32.521589 32.503486 32.485953 32.469417 32.453604
32.438923 32.425109 32.412551 32.400996 32.390810 32.381748 32.374152 32.367790
32.362976 32.359491 32.357618 32.357151 32.358346 32.361007 32.365360 32.371219
32.378784 32.387879 32.398671 32.410998 32.424998 32.440516 32.457663 32.476292
32.496489 32.518111 32.541221 32.565682 32.591531 32.618637 32.647016 32.676540
32.707204 32.738884 32.771558 32.805104 32.839482 32.874575 32.910328 32.946628
32.983406 33.020553 33.057990 33.095613 33.133333
33.511111 33.461133 33.411288 33.361695 33.312496 33.263799 33.215754 33.168450
33.122045 33.076611 33.032311 32.989195 32.947432 32.907048 32.868218 32.830943
32.795401 32.761565 32.729620 32.699508 32.671421 32.645267 32.621247 32.599233
32.579437 32.561694 32.546224 32.532827 32.521734 32.512704 32.505983 32.501289
32.498882 32.498440 32.500236 32.503910 32.509750 32.517355 32.527029 32.538333
32.551587 32.566315 32.582852 32.600689 32.620174 32.640770 32.662837 32.685812
32.710068 32.735020 32.761053 32.787566 32.814953 32.842602 32.870914 32.899276
32.928092 32.956751 32.985661 33.014220 33.042836 33.070920 33.098879 33.126145
33.153119 33.179257 33.204952 33.229692 33.253855 33.276964 33.299382 33.320668
33.341166 33.360474 33.378914 33.396126 33.412403 33.427429 33.441467 33.454245
33.465991 33.476480 33.485902 33.494075 33.501151 33.506995 33.511715 33.515222
33.517582 33.518748 33.518744 33.517569 33.515202 33.511686 33.506956 33.501102
33.494014 33.485827 33.476391 33.465886 33.454121 33.441321 33.427259 33.412205
33.395897 33.378649 33.360169 33.340814 33.320264 33.298920 33.276436 33.253252
33.229005 33.204172 33.178372 33.152117 33.125014 33.097603 33.069484 33.041223
33.012412 32.983638 32.954491 32.925573 32.896473 32.867802 32.839153 32.811137
32.783354 32.756411 32.729915 32.704463 32.679670 32.656120 32.633439 32.612187
32.592005 32.573427 32.556106 32.540549 32.526423 32.514201 32.503566 32.494955
32.488068 32.483304 32.480377 32.479650 32.480853 32.484308 32.489759 32.497491
32.507262 32.519318 32.533430 32.549804 32.568226 32.588864 32.611514 32.636308
32.663053 32.691846 32.722500 32.755083 32.789413 32.825528 32.863252 32.902593
32.943383 32.985602 33.029087 33.073795 33.119567 33.166338 33.213954 33.262333
33.311325 33.360832 33.410711 33.460849 33.511111
33.888889 33.826472 33.764214 33.702288 33.640835 33.580040 33.520026 33.460987
33.403025 33.346341 33.291013 33.237248 33.185095 33.134770 33.086291 33.039880
32.995520 32.953441 32.913588 32.876201 32.841183 32.808784 32.778866 32.751687
32.727066 32.705273 32.686080 32.669772 32.656070 32.645276 32.637061 32.631743
32.628944 32.628999 32.631479 32.636738 32.644296 32.654526 32.666901 32.681811
32.698683 32.717926 32.738921 32.762097 32.786796 32.813463 32.841403 32.871079
32.901766 32.933939 32.966853 33.000995 33.035602 33.071171 33.106932 33.143389
33.179771 33.216587 33.253073 33.289742 33.325842 33.361885 33.397144 33.432124
33.466126 33.499648 33.532026 33.563745 33.594181 33.623801 33.652028 33.679305
33.705104 33.729842 33.753042 33.775089 33.795561 33.814805 33.832455 33.848818
33.863583 33.877012 33.888851 33.899316 33.908206 33.915687 33.921617 33.926106
33.929069 33.930563 33.930558 33.929054 33.926080 33.921580 33.915638 33.908144
33.899239 33.888759 33.876901 33.863451 33.848663 33.832273 33.814593 33.795314
33.774803 33.752711 33.729460 33.704664 33.678800 33.651450 33.623141 33.593427
33.562887 33.531051 33.498542 33.464874 33.430710 33.395549 33.360091 33.323826
33.287482 33.250544 33.213763 33.176622 33.139886 33.103042 33.066860 33.030833
32.995730 32.961051 32.927557 32.894759 32.863402 32.833008 32.804299 32.776813
32.751242 32.727140 32.705164 32.684886 32.666924 32.650867 32.637291 32.625804
32.616935 32.610314 32.606422 32.604905 32.606198 32.609967 32.616595 32.625767
32.637817 32.652448 32.669945 32.690027 32.712930 32.738390 32.766596 32.797296
32.830635 32.866374 32.904615 32.945128 32.987975 33.032935 33.080034 33.129057
33.179995 33.232640 33.286953 33.342730 33.399904 33.458278 33.517760 33.578159
33.639360 33.701181 33.763488 33.826107 33.888889
34.266667 34.191844 34.117221 34.042980 33.969336 33.896451 33.824552 33.753775
33.684360 33.616414 33.550184 33.485748 33.423362 33.363066 33.305125 33.249539
33.196582 33.146213 33.098713 33.053994 33.012351 32.973643 32.938177 32.905762
32.876718 32.850796 32.828336 32.809029 32.793232 32.780579 32.771445 32.765402
32.762847 32.763291 32.767152 32.773881 32.783917 32.796652 32.812547 32.830936
32.852303 32.875927 32.902313 32.930689 32.961582 32.994173 33.029010 33.065233
33.103408 33.142643 33.183521 33.225125 33.268051 33.311367 33.355680 33.400053
33.445099 33.489887 33.535033 33.579618 33.624262 33.668067 33.711649 33.754142
33.796153 33.836856 33.876845 33.915341 33.952918 33.988851 34.023689 34.056764
34.088598 34.118580 34.147199 34.173910 34.199157 34.222463 34.244226 34.264035
34.282237 34.298489 34.313082 34.325743 34.336700 34.345750 34.353057 34.358487
34.362139 34.363945 34.363939 34.362120 34.358456 34.353013 34.345691 34.336626
34.325651 34.312971 34.298356 34.282078 34.263848 34.244007 34.222208 34.198861
34.173566 34.146802 34.118122 34.088070 34.056159 34.022996 33.988058 33.952014
33.914311 33.875675 33.835529 33.794651 33.752445 33.709735 33.665914 33.621843
33.576906 33.531998 33.486497 33.441321 33.395849 33.351012 33.306194 33.262328
33.218807 33.176558 33.134985 33.095000 33.056021 33.018936 32.983177 32.949603
32.917663 32.888176 32.860613 32.835748 32.813071 32.793306 32.775969 32.761726
32.750118 32.741755 32.736198 32.734001 32.734748 32.738933 32.746163 32.756870
32.770685 32.787979 32.808404 32.832273 32.859256 32.889609 32.923020 32.959690
32.999321 33.042062 33.087628 33.136120 33.187262 33.241108 33.297395 33.356131
33.417062 33.480157 33.545169 33.612032 33.680504 33.750489 33.821752 33.894169
33.967514 34.041637 34.116323 34.191401 34.266667
34.644444 34.557263 34.470306 34.383817 34.297999 34.213112 34.129330 34.046928
33.966049 33.886980 33.809829 33.734894 33.662242 33.592180 33.524734 33.460220
33.398615 33.340246 33.285036 33.233328 33.184985 33.140363 33.099268 33.062071
33.028512 32.998980 32.973151 32.951433 32.933430 32.919576 32.909402 32.903366
32.900927 32.902566 32.907673 32.916753 32.929125 32.945319 32.964585 32.987480
33.013185 33.042285 33.073897 33.108630 33.145545 33.185273 33.226825 33.270855
33.316329 33.363921 33.412565 33.462952 33.513991 33.566388 33.619039 33.672662
33.726151 33.780231 33.833808 33.887608 33.940559 33.993386 34.045049 34.096267
34.146042 34.195079 34.242433 34.288792 34.333267 34.376521 34.417733 34.457533
34.495170 34.531238 34.565058 34.597180 34.627002 34.655021 34.680716 34.704526
34.726008 34.745539 34.762757 34.777969 34.790893 34.801765 34.810383 34.816905
34.821211 34.823381 34.823374 34.821190 34.816869 34.810331 34.801696 34.790806
34.777862 34.762627 34.745384 34.725824 34.704308 34.680461 34.654724 34.626656
34.596779 34.564595 34.530704 34.494555 34.456827 34.416924 34.375596 34.332212
34.287591 34.241069 34.193531 34.144289 34.094287 34.042817 33.990873 33.937737
33.884444 33.830268 33.776277 33.721744 33.667758 33.613594 33.560353 33.507315
33.455581 33.404442 33.354987 33.306520 33.260108 33.215072 33.172444 33.131568
33.093433 33.057404 33.024420 32.993871 32.966638 32.942138 32.921190 32.903236
32.889031 32.878043 32.870959 32.867274 32.867604 32.871473 32.879425 32.891009
32.906699 32.926070 32.949525 32.976663 33.007818 33.042610 33.081309 33.123554
33.169549 33.218952 33.271908 33.328086 33.387577 33.450063 33.515582 33.583825
33.654783 33.728157 33.803893 33.881700 33.961486 34.042968 34.126017 34.210363
34.295843 34.382200 34.469244 34.556729 34.644444
35.022222 34.922728 34.823504 34.724795 34.626893 34.530014 34.434466 34.340433
34.248239 34.158029 34.070139 33.984671 33.901975 33.822104 33.745419 33.671920
33.601982 33.535545 33.472997 33.414217 33.359609 33.308981 33.262757 33.220673
33.183171 33.149915 33.121367 33.097111 33.077635 33.062443 33.052048 33.045871
33.044453 33.047132 33.054479 33.065745 33.081534 33.101015 33.124820 33.152039
33.183333 33.217718 33.255884 33.296774 33.341107 33.387764 33.437489 33.489107
33.543386 33.599109 33.657061 33.715994 33.776710 33.837941 33.900503 33.963118
34.026615 34.089721 34.153271 34.216010 34.278774 34.340341 34.401541 34.461196
34.520126 34.577208 34.633244 34.687174 34.739778 34.790068 34.838791 34.885039
34.929518 34.971405 35.011358 35.048642 35.083860 35.116366 35.146701 35.174310
35.199666 35.222304 35.242622 35.260248 35.275497 35.288091 35.298257 35.305812
35.310891 35.313404 35.313396 35.310867 35.305770 35.298198 35.288013 35.275398
35.260126 35.242473 35.222127 35.199455 35.174062 35.146410 35.116026 35.083465
35.048183 35.010828 34.970794 34.928815 34.884232 34.837867 34.789011 34.738573
34.685801 34.631684 34.575439 34.518124 34.458933 34.398990 34.337470 34.275549
34.212394 34.149225 34.085203 34.021578 33.957514 33.894279 33.831043 33.769080
33.707569 33.647778 33.588898 33.532177 33.476825 33.424057 33.373103 33.325135
33.279406 33.237035 33.197301 33.161260 33.128219 33.099166 33.073439 33.051948
33.034063 33.020617 33.011010 33.005994 33.005002 33.008702 33.016558 33.029156
33.045989 33.067563 33.093398 33.123920 33.158675 33.198011 33.241498 33.289410
33.341337 33.397483 33.457456 33.521393 33.588917 33.660102 33.734586 33.812384
33.893147 33.976836 34.063112 34.151889 34.242838 34.335829 34.430545 34.526817
34.624341 34.722914 34.822247 34.922107 35.022222
35.400000 35.288257 35.176807 35.065969 34.956003 34.847252 34.739941 34.634430
34.530907 34.429745 34.331085 34.235318 34.142533 34.053133 33.967149 33.885001
33.806655 33.732546 33.662573 33.597186 33.536210 33.480114 33.428645 33.382294
33.340722 33.304446 33.273038 33.247042 33.225940 33.210304 33.199523 33.194200
33.193628 33.198443 33.207842 33.222495 33.241504 33.265572 33.293709 33.326651
33.363317 33.404479 33.448971 33.497595 33.549110 33.604347 33.661997 33.722917
33.785744 33.851359 33.918352 33.987625 34.057740 34.129617 34.201799 34.275219
34.348422 34.422350 34.495559 34.568998 34.641253 34.713268 34.783675 34.853410
34.921160 34.987847 35.052227 35.115199 35.175597 35.234288 35.290194 35.344142
35.395146 35.443985 35.489771 35.533226 35.573562 35.611434 35.646159 35.678316
35.707327 35.733687 35.756925 35.777444 35.794878 35.809536 35.821157 35.829949
35.835754 35.838679 35.838670 35.835727 35.829902 35.821091 35.809448 35.794766
35.777306 35.756758 35.733487 35.707090 35.678037 35.645832 35.611052 35.573118
35.532710 35.489175 35.443298 35.394355 35.343234 35.289154 35.233100 35.174241
35.113655 35.050473 34.985857 34.918907 34.850865 34.780805 34.710038 34.637625
34.564931 34.491008 34.417266 34.342755 34.268914 34.194798 34.121857 34.049157
33.978148 33.907908 33.839871 33.773134 33.709100 33.646886 33.587853 33.531141
33.478057 33.427766 33.381510 33.338485 33.299854 33.264849 33.234550 33.208220
33.186853 33.169748 33.157807 33.150363 33.148225 33.150761 33.158686 33.171404
33.189534 33.212513 33.240870 33.274070 33.312553 33.355814 33.404205 33.457246
33.515208 33.577634 33.644714 33.716012 33.791645 33.871193 33.954706 34.041777
34.132394 34.226164 34.323017 34.422571 34.524705 34.629051 34.735440 34.843517
34.953074 35.063772 35.175365 35.287532 35.400000
35.777778 35.653846 35.530258 35.407324 35.285414 35.164803 35.045883 34.928886
34.814227 34.702087 34.592897 34.486787 34.384203 34.285214 34.190281 34.099406
34.013068 33.931194 33.854283 33.782179 33.715405 33.653717 33.597660 33.546902
33.502012 33.462561 33.429148 33.401243 33.379476 33.363214 33.353121 33.348456
33.349920 33.356662 33.369422 33.387241 33.410894 33.439317 33.473323 33.511745
33.555430 33.603115 33.655681 33.711774 33.772310 33.835850 33.903343 33.973279
34.046634 34.121841 34.199901 34.279205 34.360774 34.442972 34.526838 34.610727
34.695690 34.780089 34.864982 34.948759 35.032477 35.114569 35.196088 35.275522
35.353914 35.429822 35.504268 35.575896 35.645696 35.712408 35.776982 35.838258
35.897140 35.952577 36.005410 36.054702 36.101227 36.144161 36.184197 36.220632
36.254069 36.283921 36.310696 36.333924 36.354007 36.370596 36.383980 36.393927
36.400614 36.403922 36.403912 36.400583 36.393876 36.383907 36.370498 36.353884
36.333771 36.310510 36.283699 36.253806 36.220322 36.183834 36.143736 36.100733
36.054130 36.004748 35.951813 35.896262 35.837250 35.775827 35.711087 35.644190
35.574180 35.502319 35.427611 35.351411 35.272695 35.192900 35.110980 35.028446
34.944239 34.859925 34.774440 34.689394 34.603722 34.519060 34.434351 34.351237
34.268675 34.188297 34.109078 34.032622 33.957926 33.886553 33.817524 33.752345
33.690065 33.632121 33.577594 33.527839 33.481972 33.441258 33.404848 33.373912
33.347640 33.327097 33.311513 33.301850 33.297374 33.298944 33.305864 33.318884
33.337349 33.361903 33.391926 33.427961 33.469419 33.516746 33.569383 33.627681
33.691108 33.759924 33.833623 33.912378 33.995704 34.083696 34.175887 34.272297
34.372476 34.476377 34.583564 34.693930 34.807053 34.922770 35.040676 35.160557
35.282026 35.404827 35.528589 35.653022 35.777778
36.155556 36.019517 35.883842 35.748928 35.615099 35.482780 35.352252 35.223965
35.098149 34.975274 34.855514 34.739358 34.626915 34.518695 34.414734 34.315561
34.221134 34.132001 34.048037 33.969810 33.897103 33.830511 33.769716 33.715342
33.666966 33.625243 33.589640 33.560848 33.538216 33.522473 33.512853 33.510120
33.513389 33.523465 33.539340 33.561862 33.589903 33.624349 33.663956 33.709650
33.760074 33.816193 33.876541 33.942123 34.011375 34.085334 34.162353 34.243499
34.327053 34.414110 34.502895 34.594528 34.687194 34.782034 34.877213 34.973888
35.070223 35.167388 35.263564 35.359926 35.454696 35.549045 35.641251 35.732479
35.821079 35.908197 35.992273 36.074425 36.153194 36.229660 36.302475 36.372672
36.439019 36.502490 36.561979 36.618387 36.670737 36.719846 36.764867 36.806525
36.844103 36.878223 36.908299 36.934840 36.957392 36.976342 36.991367 37.002728
37.010233 37.014012 37.014001 37.010200 37.002672 36.991286 36.976234 36.957256
36.934672 36.908095 36.877979 36.843814 36.806183 36.764467 36.719379 36.670193
36.617758 36.561251 36.501651 36.438053 36.371563 36.301205 36.228208 36.151537
36.072538 35.990128 35.905765 35.818326 35.729369 35.637744 35.545097 35.450262
35.354955 35.258001 35.161175 35.063298 34.966183 34.868656 34.772550 34.676703
34.582945 34.490130 34.400071 34.311640 34.226612 34.143884 34.065176 33.989413
33.918243 33.850625 33.788120 33.729724 33.676901 33.628684 33.586434 33.549224
33.518303 33.492784 33.473802 33.460514 33.453933 33.453260 33.459392 33.471569
33.490570 33.515677 33.547553 33.585518 33.630122 33.680722 33.737759 33.800623
33.869651 33.944263 34.024699 34.110403 34.201524 34.297529 34.398482 34.503869
34.613677 34.727409 34.844980 34.965912 35.090054 35.216946 35.346378 35.477908
35.611277 35.746062 35.881960 36.018571 36.155556
36.533333 36.385261 36.237609 36.090756 35.945155 35.801143 35.659200 35.519610
35.382880 35.249235 35.119204 34.992944 34.871008 34.753477 34.640926 34.533354
34.431358 34.334846 34.244440 34.159949 34.082023 34.010365 33.945656 33.887485
33.836567 33.792372 33.755652 33.725752 33.703464 33.688004 33.680205 33.679152
33.685721 33.698862 33.719495 33.746438 33.780654 33.820828 33.867966 33.920625
33.979854 34.044086 34.114410 34.189147 34.269423 34.353455 34.442406 34.534403
34.630640 34.729174 34.831226 34.934799 35.041138 35.148215 35.257294 35.366334
35.476614 35.586106 35.696097 35.804590 35.912878 36.019015 36.124289 36.226830
36.327910 36.425751 36.521602 36.613789 36.703528 36.789265 36.872167 36.950810
37.026303 37.097355 37.165005 37.228103 37.287602 37.342496 37.393641 37.440177
37.482849 37.520942 37.555083 37.584701 37.610292 37.631432 37.648479 37.661150
37.669664 37.673878 37.673866 37.669627 37.661088 37.648390 37.631315 37.610144
37.584517 37.554860 37.520676 37.482533 37.439805 37.393205 37.341987 37.287009
37.227416 37.164211 37.096439 37.025249 36.949601 36.870782 36.787681 36.701721
36.611731 36.519263 36.423098 36.324907 36.223437 36.120463 36.014709 35.908041
35.799168 35.690029 35.579329 35.469060 35.357928 35.247960 35.137870 35.029694
34.922163 34.817301 34.713858 34.613827 34.515981 34.422259 34.331465 34.245466
34.163097 34.086139 34.013462 33.946745 33.884899 33.829489 33.779467 33.736279
33.698920 33.668709 33.644687 33.628041 33.617860 33.615199 33.619192 33.630763
33.649092 33.674972 33.707627 33.747724 33.794529 33.848585 33.909197 33.976791
34.050706 34.131259 34.217819 34.310597 34.408990 34.513115 34.622389 34.736840
34.855908 34.979538 35.107190 35.238733 35.373649 35.511737 35.652500 35.795679
35.940796 36.087542 36.235462 36.384201 36.533333
36.911111 36.751105 36.591537 36.432886 36.275545 36.120025 35.966667 35.816013
35.668343 35.524225 35.383869 35.247872 35.116364 34.989966 34.868723 34.753281
34.643590 34.540324 34.443327 34.353304 34.269988 34.194114 34.125297 34.064307
34.010631 33.965080 33.927006 33.897261 33.875059 33.861298 33.855045 33.857246
33.866822 33.884764 33.909848 33.943110 33.983178 34.031138 34.085471 34.147309
34.214992 34.289698 34.369635 34.456021 34.546945 34.643661 34.744153 34.849710
34.958225 35.071021 35.185918 35.304267 35.423842 35.546016 35.668538 35.792798
35.916548 36.041191 36.164503 36.287892 36.409185 36.529790 36.647605 36.764028
36.877050 36.988052 37.095132 37.199642 37.299807 37.396935 37.489389 37.578419
37.662538 37.742923 37.818240 37.889583 37.955774 38.017807 38.074663 38.127224
38.174630 38.217638 38.255545 38.288971 38.317374 38.341225 38.360138 38.374433
38.383876 38.388630 38.388617 38.383837 38.374366 38.360043 38.341098 38.317213
38.288773 38.255304 38.217349 38.174288 38.126821 38.074191 38.017255 37.955132
37.888840 37.817380 37.741931 37.661396 37.577109 37.487888 37.395219 37.297850
37.197413 37.092599 36.985178 36.873798 36.760353 36.643461 36.525126 36.403946
36.282018 36.157929 36.033849 35.908364 35.783693 35.658426 35.534809 35.411445
35.290579 35.170834 35.054429 34.940011 34.829753 34.722328 34.619838 34.520991
34.427801 34.339008 34.256523 34.179126 34.108606 34.043788 33.986332 33.935107
33.891634 33.854831 33.826077 33.804339 33.790850 33.784626 33.786756 33.796306
33.814219 33.839611 33.873283 33.914397 33.963618 34.020153 34.084535 34.156009
34.234985 34.320746 34.413581 34.512807 34.618603 34.730315 34.848020 34.971089
35.099504 35.232662 35.370458 35.512311 35.658038 35.807082 35.959190 36.113827
36.270681 36.429240 36.589141 36.749902 36.911111
37.288889 37.117036 36.945683 36.775284 36.606379 36.439368 36.274827 36.113093
35.954775 35.800139 35.649823 35.504013 35.363376 35.228009 35.098606 34.975167
34.858414 34.748239 34.645398 34.549662 34.461824 34.381530 34.309607 34.245569
34.190285 34.143124 34.105001 34.075136 34.054492 34.042131 34.039068 34.044206
34.058609 34.081019 34.112550 34.151782 34.199879 34.255259 34.319138 34.389774
34.468430 34.553215 34.645437 34.743064 34.847446 34.956425 35.071387 35.190067
35.313886 35.440489 35.571327 35.703981 35.839926 35.976705 36.115815 36.254785
36.395129 36.534390 36.674094 36.811826 36.949116 37.083616 37.216852 37.346569
37.474280 37.597842 37.718742 37.834970 37.947974 38.055892 38.160119 38.258950
38.353712 38.442866 38.527656 38.606714 38.681183 38.749868 38.813799 38.871954
38.925231 38.972785 39.015369 39.052309 39.084205 39.110552 39.131787 39.147573
39.158174 39.163424 39.163410 39.158132 39.147501 39.131684 39.110416 39.084032
39.052096 39.015110 38.972475 38.924863 38.871520 38.813290 38.749275 38.680492
38.605913 38.526731 38.441799 38.352484 38.257540 38.158504 38.054045 37.945866
37.832569 37.716014 37.594748 37.470777 37.342612 37.212389 37.078593 36.943474
36.805501 36.667016 36.526484 36.386316 36.244980 36.104927 35.964637 35.826576
35.689240 35.555083 35.422622 35.294272 35.168576 35.047884 34.930770 34.819497
34.712674 34.612455 34.517489 34.429806 34.348095 34.274251 34.207008 34.148112
34.096348 34.053304 34.017820 33.991324 33.972707 33.963238 33.961862 33.969688
33.985715 34.010894 34.044277 34.086662 34.137151 34.196396 34.263543 34.339105
34.422272 34.513423 34.611788 34.717620 34.830184 34.949618 35.075218 35.207015
35.344331 35.487101 35.634674 35.786894 35.943136 36.103165 36.266382 36.432479
36.600886 36.771233 36.942978 37.115699 37.288889
37.666667 37.483085 37.300021 37.118040 36.937606 36.759325 36.583599 36.411070
36.242068 36.077272 35.916927 35.761744 35.611879 35.468074 35.330383 35.199581
35.075609 34.959277 34.850403 34.749836 34.657261 34.573567 34.498298 34.432386
34.375225 34.327795 34.289330 34.260860 34.241455 34.232197 34.231983 34.241951
34.260821 34.289785 34.327385 34.374869 34.430600 34.495879 34.568891 34.650991
34.740193 34.837899 34.941965 35.053836 35.171221 35.295606 35.424569 35.559634
35.698270 35.842032 35.988306 36.138675 36.290467 36.445289 36.600441 36.757550
36.913918 37.071186 37.226689 37.382077 37.534746 37.686347 37.834368 37.980449
38.122194 38.261225 38.395281 38.525951 38.651130 38.772360 38.887702 38.998637
39.103405 39.203403 39.297058 39.385670 39.467852 39.544788 39.615282 39.680385
39.739089 39.792297 39.839189 39.880504 39.915609 39.945067 39.968429 39.986075
39.997736 40.003604 40.003589 39.997691 39.985998 39.968319 39.944921 39.915424
39.880275 39.838912 39.791965 39.738695 39.679920 39.614737 39.544152 39.467112
39.384812 39.296067 39.202260 39.102089 38.997127 38.885971 38.770381 38.648872
38.523380 38.392358 38.257911 38.118442 37.976210 37.829587 37.680967 37.528702
37.375300 37.219106 37.062716 36.904476 36.747045 36.588775 36.432359 36.276163
36.122882 35.970902 35.822889 35.677255 35.536607 35.399388 35.268119 35.141277
35.021276 34.906628 34.799622 34.698811 34.606337 34.520799 34.444183 34.375137
34.315479 34.263910 34.222075 34.188733 34.165349 34.150742 34.146201 34.150602
34.165062 34.188512 34.221901 34.264217 34.316244 34.377021 34.447179 34.525806
34.613383 34.709043 34.813128 34.924813 35.044309 35.170828 35.304459 35.444448
35.590774 35.742713 35.900142 36.062368 36.229176 36.399900 36.574245 36.751575
36.931522 37.113482 37.297025 37.481581 37.666667
38.044444 37.849236 37.654613 37.461108 37.269354 37.079819 36.893182 36.709835
36.530498 36.355481 36.185538 36.020889 35.862322 35.709952 35.564606 35.426281
35.295841 35.173160 35.059141 34.953518 34.857239 34.769892 34.692469 34.624400
34.566729 34.518717 34.481462 34.454049 34.437633 34.431113 34.435703 34.450113
34.475614 34.510725 34.556775 34.612084 34.678042 34.752774 34.837722 34.930825
35.033574 35.143727 35.262822 35.388448 35.522186 35.661474 35.807930 35.958860
36.115918 36.276302 36.441698 36.609225 36.780595 36.952880 37.127815 37.302458
37.478562 37.653205 37.828154 38.000538 38.172132 38.340150 38.506364 38.668104
38.827128 38.980905 39.131170 39.275552 39.415745 39.549558 39.678626 39.800950
39.918089 40.028243 40.132876 40.230393 40.322141 40.406732 40.485379 40.556900