<?xml version="1.0"?>
<VTKFile type="ImageData" version="0.1" byte_order="LittleEndian">
  <ImageData WholeExtent="0 180 0 180 0 0" Origin="0.0 0.0 0.0" Spacing="0.05 0.05 1">
    <Piece Extent="0 180 0 180 0 0">
      <PointData Scalars="Temperature">
        <DataArray type="Float32" Name="Temperature" format="ascii">
32.000000 32.000000 32.000000 32.000000 32.000000 32.000000 32.000000 32.000000 32.000000 32.000000 32.000000 32.000000 32.000000 32.000000 32.000000 32.000000 32.000000 32.000000 32.000000 32.000000 32.000000 32.000000 32.000000 32.000000 32.000000 32.000000 32.000000 32.000000 32.000000 32.000000 32.000000 32.000000 32.000000 32.000000 32.000000 32.000000 32.000000 32.000000 32.000000 32.000000 32.000000 32.000000 32.000000 32.000000 32.000000 32.000000 32.000000 32.000000 32.000000 32.000000 32.000000 32.000000 32.000000 32.000000 32.000000 32.000000 32.000000 32.000000 32.000000 32.000000 32.000000 32.000000 32.000000 32.000000 32.000000 32.000000 32.000000 32.000000 32.000000 32.000000 32.000000 32.000000 32.000000 32.000000 32.000000 32.000000 32.000000 32.000000 32.000000 32.000000 32.000000 32.000000 32.000000 32.000000 32.000000 32.000000 32.000000 32.000000 32.000000 32.000000 32.000000 32.000000 32.000000 32.000000 32.000000 32.000000 32.000000 32.000000 32.000000 32.000000 32.000000 32.000000 32.000000 32.000000 32.000000 32.000000 32.000000 32.000000 32.000000 32.000000 32.000000 32.000000 32.000000 32.000000 32.000000 32.000000 32.000000 32.000000 32.000000 32.000000 32.000000 32.000000 32.000000 32.000000 32.000000 32.000000 32.000000 32.000000 32.000000 32.000000 32.000000 32.000000 32.000000 32.000000 32.000000 32.000000 32.000000 32.000000 32.000000 32.000000 32.000000 32.000000 32.000000 32.000000 32.000000 32.000000 32.000000 32.000000 32.000000 32.000000 32.000000 32.000000 32.000000 32.000000 32.000000 32.000000 32.000000 32.000000 32.000000 32.000000 32.000000 32.000000 32.000000 32.000000 32.000000 32.000000 32.000000 32.000000 32.000000 32.000000 32.000000 32.000000 32.000000 32.000000 32.000000 32.000000 32.000000 32.000000 32.000000 32.000000 32.000000
32.377778 32.382925 32.388102 32.393341 32.398667 32.404118 32.409712 32.415491 32.421469 32.427690 32.434160 32.440930 32.447998 32.455417 32.463179 32.471338 32.479879 32.488861 32.498259 32.508132 32.518451 32.529275 32.540567 32.552386 32.564687 32.577531 32.590864 32.604748 32.619121 32.634043 32.649446 32.665388 32.681796 32.698725 32.716094 32.733959 32.752232 32.770966 32.790067 32.809587 32.829428 32.849637 32.870113 32.890901 32.911896 32.933141 32.954527 32.976098 32.997739 33.019494 33.041248 33.063042 33.084761 33.106444 33.127978 33.149400 33.170600 33.191613 33.212332 33.232790 33.252885 33.272649 33.291984 33.310922 33.329370 33.347359 33.364801 33.381727 33.398056 33.413817 33.428936 33.443441 33.457265 33.470434 33.482887 33.494652 33.505672 33.515972 33.525506 33.534295 33.542299 33.549536 33.555974 33.561629 33.566476 33.570525 33.573760 33.576188 33.577799 33.578596 33.578575 33.577738 33.576086 33.573617 33.570340 33.566249 33.561359 33.555660 33.549177 33.541894 33.533843 33.525006 33.515422 33.505070 33.493997 33.482178 33.469668 33.456441 33.442557 33.427989 33.412806 33.396978 33.380581 33.363584 33.346069 33.328005 33.309481 33.290463 33.271047 33.251200 33.231020 33.210474 33.189668 33.168564 33.147273 33.125758 33.104130 33.082352 33.060538 33.038649 33.016799 32.994949 32.973213 32.951549 32.930071 32.908735 32.887652 32.866778 32.846220 32.825931 32.806016 32.786426 32.767260 32.748467 32.730142 32.712232 32.694826 32.677868 32.661442 32.645490 32.630089 32.615180 32.600833 32.586989 32.573709 32.560933 32.548716 32.536997 32.525824 32.515137 32.504974 32.495275 32.486074 32.477311 32.469011 32.461116 32.453643 32.446537 32.439809 32.433403 32.427326 32.421524 32.415995 32.410691 32.405604 32.400687 32.395927 32.391282 32.386731 32.382239 32.377778
32.755556 32.765872 32.776252 32.786748 32.797432 32.808346 32.819572 32.831139 32.843137 32.855583 32.868574 32.882114 32.896306 32.911140 32.926725 32.943037 32.960189 32.978142 32.997012 33.016748 33.037467 33.059101 33.081771 33.105394 33.130090 33.155761 33.182528 33.210277 33.239128 33.268954 33.299871 33.331737 33.364668 33.398507 33.433367 33.469078 33.505749 33.543198 33.581529 33.620551 33.660364 33.700765 33.741851 33.783410 33.825536 33.868009 33.910918 33.954041 33.997462 34.040954 34.084598 34.128168 34.171740 34.215089 34.258288 34.301116 34.343643 34.385651 34.427210 34.468109 34.508415 34.547925 34.586706 34.624563 34.661562 34.697521 34.732502 34.766335 34.799081 34.830584 34.860904 34.889895 34.917615 34.943934 34.968907 34.992417 35.014515 35.035099 35.054215 35.071778 35.087826 35.102287 35.115197 35.126496 35.136213 35.144305 35.150791 35.155643 35.158872 35.160464 35.160423 35.158749 35.155439 35.150505 35.143935 35.135759 35.125956 35.114569 35.101570 35.087016 35.070874 35.053215 35.033999 35.013312 34.991108 34.967489 34.942403 34.915967 34.888127 34.859011 34.828563 34.796928 34.764043 34.730069 34.694943 34.658835 34.621681 34.583666 34.544722 34.505046 34.464569 34.423497 34.381760 34.339572 34.296862 34.253849 34.210462 34.166924 34.123162 34.079401 34.035566 33.991883 33.948274 33.904964 33.861869 33.819215 33.776913 33.735182 33.693931 33.653373 33.613410 33.574248 33.535787 33.498221 33.461446 33.425645 33.390711 33.356816 33.323846 33.291962 33.261049 33.231251 33.202451 33.174781 33.148121 33.122587 33.098059 33.074638 33.052205 33.030844 33.010436 32.991053 32.972576 32.955061 32.938391 32.922609 32.907601 32.893395 32.879881 32.867073 32.854866 32.843261 32.832159 32.821547 32.811332 32.801491 32.791936 32.782633 32.773504 32.764501 32.755556
33.133333 33.148868 33.164490 33.180301 33.196372 33.212819 33.229697 33.247133 33.265164 33.283928 33.303444 33.323859 33.345171 33.367539 33.390937 33.415532 33.441277 33.468345 33.496668 33.526421 33.557514 33.590127 33.624147 33.659754 33.696812 33.735503 33.775669 33.817488 33.860782 33.905727 33.952121 34.000138 34.049555 34.100541 34.152853 34.206656 34.261687 34.318105 34.375630 34.434415 34.494164 34.555024 34.616684 34.679285 34.742506 34.806481 34.870879 34.935829 35.000994 35.066497 35.131997 35.197613 35.263004 35.328284 35.393114 35.457605 35.521423 35.584677 35.647041 35.708620 35.769100 35.828584 35.886773 35.943764 35.999276 36.053405 36.105885 36.156812 36.205937 36.253352 36.298832 36.342464 36.384042 36.423650 36.461104 36.496483 36.529623 36.560597 36.589264 36.615689 36.639754 36.661512 36.680870 36.697870 36.712440 36.724614 36.734339 36.741638 36.746479 36.748875 36.748814 36.746296 36.741332 36.733910 36.724060 36.711759 36.697061 36.679928 36.660437 36.638540 36.614335 36.587765 36.558948 36.527820 36.494521 36.458979 36.421355 36.381572 36.339813 36.295995 36.250322 36.202707 36.153377 36.102239 36.049540 35.995187 35.939444 35.882214 35.823782 35.764049 35.703313 35.641474 35.578844 35.515320 35.451227 35.386458 35.321347 35.255783 35.190107 35.124204 35.058418 34.992629 34.927181 34.861950 34.797275 34.733028 34.669543 34.606684 34.544777 34.483681 34.423708 34.364713 34.306995 34.250400 34.195214 34.141276 34.088853 34.037782 33.988309 33.940265 33.893878 33.848974 33.805760 33.764058 33.724054 33.685568 33.648764 33.613460 33.579797 33.547594 33.516970 33.487745 33.460016 33.433604 33.408585 33.384784 33.362255 33.340829 33.320538 33.301220 33.282886 33.265383 33.248701 33.232696 33.217341 33.202501 33.188131 33.174108 33.160368 33.146803 33.133333
33.511111 33.531929 33.552873 33.574050 33.595605 33.617622 33.640265 33.663594 33.687788 33.712882 33.739070 33.766361 33.794960 33.824850 33.856248 33.889106 33.923650 33.959805 33.997803 34.037538 34.079248 34.122799 34.168429 34.215974 34.265675 34.317336 34.371198 34.427035 34.485086 34.545096 34.607298 34.671410 34.737660 34.805737 34.875864 34.947703 35.021469 35.096801 35.173906 35.252399 35.332480 35.413744 35.496382 35.579972 35.664697 35.750121 35.836419 35.923145 36.010465 36.097927 36.185692 36.273303 36.360915 36.448074 36.534928 36.621029 36.706522 36.790967 36.874503 36.956707 37.037714 37.117115 37.195044 37.271112 37.345449 37.417689 37.487960 37.555919 37.621690 37.684958 37.745843 37.804056 37.859712 37.912552 37.962683 38.009876 38.054229 38.095542 38.133906 38.169149 38.201351 38.230368 38.256270 38.278941 38.298435 38.314669 38.327680 38.337413 38.343890 38.347085 38.347004 38.343647 38.337006 38.327109 38.313931 38.297528 38.277862 38.255016 38.228936 38.199735 38.167345 38.131909 38.093346 38.051827 38.007263 37.959852 37.909495 37.856422 37.800525 37.742063 37.680922 37.617388 37.551343 37.483101 37.412540 37.340000 37.265354 37.188970 37.110716 37.030982 36.949635 36.867085 36.783194 36.698388 36.612530 36.526058 36.438829 36.351292 36.263299 36.175307 36.087160 35.999318 35.911619 35.824519 35.737852 35.652067 35.566988 35.483056 35.400088 35.318510 35.238130 35.159358 35.081995 35.006430 34.932455 34.860439 34.790164 34.721976 34.655650 34.591505 34.529311 34.469359 34.411413 34.355736 34.302089 34.250705 34.201343 34.154205 34.109050 34.066051 34.024966 33.985939 33.948732 33.913457 33.879881 33.848087 33.817849 33.789220 33.761982 33.736161 33.711548 33.688144 33.665748 33.644337 33.623724 33.603860 33.584572 33.565789 33.547355 33.529175 33.511111
33.888889 33.915086 33.941429 33.968089 33.995186 34.022913 34.051361 34.080744 34.111124 34.142733 34.175601 34.209977 34.245857 34.283504 34.322880 34.364261 34.407572 34.453098 34.500729 34.550757 34.603033 34.657856 34.715039 34.774882 34.837160 34.902176 34.969666 35.039929 35.112665 35.188170 35.266107 35.346766 35.429775 35.515415 35.603281 35.693647 35.786074 35.880827 35.977438 36.076161 36.176501 36.278703 36.382248 36.487368 36.593528 36.700948 36.809077 36.918127 37.027535 37.137503 37.247463 37.357610 37.467375 37.576943 37.685752 37.793982 37.901077 38.007213 38.111850 38.215159 38.316617 38.416391 38.513984 38.609559 38.702643 38.793397 38.881378 38.966743 39.049080 39.128542 39.204752 39.277855 39.347511 39.413859 39.476592 39.535841 39.591338 39.643200 39.691197 39.735435 39.775718 39.812139 39.844538 39.872991 39.897374 39.917747 39.934021 39.946235 39.954336 39.958345 39.958244 39.954032 39.945727 39.933307 39.916826 39.896242 39.871644 39.842973 39.810351 39.773701 39.733183 39.688704 39.640458 39.588340 39.532579 39.473057 39.410042 39.343403 39.273446 39.200032 39.123501 39.043708 38.961028 38.875311 38.786966 38.695838 38.602369 38.506398 38.408400 38.308209 38.206326 38.102584 37.997504 37.890918 37.783365 37.674672 37.565395 37.455354 37.345114 37.234490 37.124053 37.013609 36.903729 36.794212 36.685623 36.577750 36.471150 36.365602 36.261646 36.159051 36.058338 35.959267 35.862335 35.767290 35.674605 35.584016 35.495968 35.410188 35.327089 35.246388 35.168465 35.093031 35.020430 34.950367 34.883150 34.818481 34.756630 34.697296 34.640713 34.586579 34.535091 34.485950 34.439314 34.394888 34.352795 34.312745 34.274826 34.238756 34.204588 34.172051 34.141162 34.111666 34.083546 34.056561 34.030663 34.005629 33.981382 33.957716 33.934525 33.911628 33.888889
34.266667 34.298351 34.330226 34.362453 34.395251 34.428747 34.463187 34.498664 34.535446 34.573589 34.613383 34.654844 34.698280 34.743667 34.791329 34.841200 34.893616 34.948467 35.006101 35.066363 35.129607 35.195634 35.264802 35.336866 35.412187 35.490474 35.572086 35.656686 35.744632 35.835541 35.929764 36.026877 36.127221 36.230331 36.336538 36.445337 36.557049 36.671130 36.787890 36.906752 37.028012 37.151061 37.276185 37.402749 37.531023 37.660354 37.790998 37.922288 38.054467 38.186857 38.319692 38.452291 38.584877 38.716771 38.848190 38.978461 39.107795 39.235535 39.361884 39.486206 39.608700 39.728754 39.846565 39.961549 40.073900 40.183069 40.289244 40.391913 40.491262 40.586817 40.678757 40.766652 40.850672 40.930432 41.006090 41.077306 41.144227 41.206555 41.264425 41.317583 41.366147 41.409907 41.448962 41.483145 41.512537 41.537010 41.556625 41.571297 41.581062 41.585879 41.585757 41.580698 41.570689 41.555771 41.535907 41.511181 41.481533 41.447088 41.407764 41.363731 41.314885 41.261438 41.203270 41.140635 41.073397 41.001854 40.925858 40.845750 40.761369 40.673101 40.580776 40.484823 40.385064 40.281972 40.175361 40.065743 39.952930 39.837471 39.719174 39.598621 39.475617 39.350774 39.223894 39.095615 38.965732 38.834905 38.702925 38.570464 38.437308 38.304137 38.170730 38.037770 37.905024 37.773174 37.641977 37.512105 37.383302 37.256227 37.130610 37.007090 36.885384 36.766106 36.648960 36.534531 36.422509 36.313446 36.207021 36.103747 36.003293 35.906134 35.811928 35.721109 35.633327 35.548972 35.467688 35.389823 35.315016 35.243569 35.175121 35.109929 35.047632 34.988443 34.932004 34.878483 34.827530 34.779268 34.733356 34.689874 34.648494 34.609253 34.571837 34.536245 34.502178 34.469596 34.438220 34.407973 34.378599 34.349985 34.321898 34.294194 34.266667
34.644444 34.681759 34.719280 34.757248 34.795832 34.835305 34.875796 34.917607 34.960825 35.005778 35.052507 35.101365 35.152346 35.205822 35.261739 35.320485 35.381959 35.446559 35.514132 35.585090 35.659225 35.736955 35.818021 35.902844 35.991111 36.083242 36.178872 36.278420 36.381466 36.488423 36.598821 36.713064 36.830632 36.951918 37.076354 37.204321 37.335206 37.469375 37.606175 37.745956 37.888028 38.032724 38.179321 38.328139 38.478425 38.630485 38.783544 38.937894 39.092745 39.248375 39.403987 39.559846 39.715155 39.870168 40.024095 40.177182 40.328651 40.478742 40.626697 40.772749 40.916170 41.057186 41.195101 41.330139 41.461639 41.589823 41.714073 41.834603 41.950842 42.062999 42.170549 42.273695 42.371963 42.465544 42.554016 42.637558 42.715799 42.788903 42.856551 42.918891 42.975653 43.026964 43.072606 43.112685 43.147030 43.175722 43.198641 43.215842 43.227252 43.232898 43.232757 43.226827 43.215133 43.197646 43.174437 43.145451 43.110807 43.070423 43.024470 42.972839 42.915750 42.853073 42.785078 42.711615 42.633006 42.549083 42.460218 42.366229 42.267542 42.163961 42.055962 41.943341 41.826624 41.705601 41.580843 41.452135 41.320096 41.184505 41.046023 40.904425 40.760410 40.613750 40.465176 40.314456 40.162347 40.008612 39.854030 39.698356 39.542382 39.385856 39.229578 39.073283 38.917772 38.762769 38.609066 38.456375 38.305473 38.156059 38.008888 37.863643 37.721054 37.580787 37.443541 37.308965 37.177722 37.049447 36.924761 36.803284 36.685594 36.571297 36.460925 36.354073 36.251224 36.151964 36.056724 35.965085 35.877427 35.793326 35.713110 35.636355 35.563336 35.493632 35.427464 35.364419 35.304666 35.247800 35.193939 35.142691 35.094124 35.047862 35.003925 34.961953 34.921923 34.883495 34.846601 34.810927 34.776361 34.742616 34.709542 34.676881 34.644444
35.022222 35.065315 35.108666 35.152489 35.197081 35.242613 35.289415 35.337612 35.387566 35.439352 35.493360 35.549612 35.608522 35.670060 35.734660 35.802235 35.873236 35.947519 36.025547 36.107117 36.192702 36.282039 36.375606 36.473078 36.574937 36.680795 36.791133 36.905503 37.024380 37.147256 37.274598 37.405841 37.541437 37.680768 37.824273 37.971277 38.122206 38.276335 38.434072 38.594648 38.758450 38.924671 39.093679 39.264631 39.437880 39.612552 39.788982 39.966277 40.144756 40.323512 40.502849 40.681855 40.860820 41.038839 41.216188 41.391974 41.566465 41.738786 41.909201 42.076860 42.242022 42.403871 42.562661 42.717619 42.868993 43.016055 43.159052 43.297303 43.431050 43.559669 43.683392 43.801650 43.914670 44.021939 44.123670 44.219411 44.309361 44.393124 44.470881 44.542297 44.607531 44.666304 44.718752 44.764652 44.804114 44.836971 44.863303 44.883000 44.896109 44.902575 44.902414 44.895625 44.882192 44.862169 44.835507 44.802314 44.762511 44.716263 44.663460 44.604323 44.538715 44.466915 44.388761 44.304590 44.214220 44.118044 44.015863 43.908130 43.794631 43.675876 43.551641 43.422493 43.288200 43.149385 43.005808 42.858148 42.706158 42.550569 42.391131 42.228618 42.062777 41.894424 41.723302 41.550262 41.375039 41.198514 41.020416 40.841643 40.661918 40.482151 40.302052 40.122538 39.943305 39.765264 39.588099 39.412707 39.238756 39.067124 38.897460 38.730615 38.566221 38.405094 38.246847 38.092258 37.940921 37.793569 37.649779 37.510236 37.374500 37.243203 37.115892 36.993143 36.874493 36.760460 36.650570 36.545285 36.444124 36.347488 36.254895 36.166686 36.082379 36.002255 35.925838 35.853349 35.784318 35.718910 35.656666 35.597693 35.541549 35.488285 35.437477 35.389122 35.342820 35.298516 35.255835 35.214673 35.174686 35.135721 35.097466 35.059725 35.022222
35.400000 35.449060 35.498388 35.548297 35.599007 35.650871 35.704059 35.758962 35.815693 35.874677 35.935973 36.000032 36.066854 36.136915 36.210154 36.287068 36.367531 36.452057 36.540453 36.633247 36.730179 36.831783 36.937733 37.048566 37.163886 37.284232 37.409139 37.539140 37.673702 37.813352 37.957489 38.106628 38.260104 38.418418 38.580842 38.747859 38.918685 39.093782 39.272313 39.454719 39.640114 39.828918 40.020202 40.214366 40.410444 40.608816 40.808488 41.009820 41.211800 41.414769 41.617704 41.820931 42.023428 42.225505 42.426149 42.625660 42.823042 43.018587 43.211324 43.401542 43.588302 43.771888 43.951406 44.127135 44.298230 44.464965 44.626551 44.783257 44.934353 45.080104 45.219840 45.353817 45.481432 45.602928 45.717769 45.826183 45.927699 46.022530 46.110268 46.191104 46.264696 46.331210 46.390368 46.442307 46.486812 46.523989 46.553684 46.575968 46.590751 46.598067 46.597886 46.590208 46.575062 46.552411 46.522345 46.484793 46.439905 46.387576 46.328019 46.261096 46.187084 46.105816 46.017634 45.922346 45.820357 45.711454 45.596109 45.474091 45.345937 45.211402 45.071091 44.924746 44.773036 44.615696 44.453457 44.286050 44.114264 43.937825 43.757579 43.573246 43.385722 43.194724 43.001192 42.804838 42.606636 42.406291 42.204807 42.001880 41.798531 41.594447 41.390657 41.186834 40.984008 40.781838 40.581341 40.382160 40.185294 39.990365 39.798347 39.608840 39.422784 39.239758 39.060658 38.885044 38.713765 38.546357 38.383619 38.225067 38.071441 37.922242 37.778148 37.638645 37.504347 37.374728 37.250337 37.130639 37.016116 36.906227 36.801388 36.701056 36.605580 36.514419 36.427853 36.345351 36.267126 36.192656 36.122091 36.054924 35.991240 35.930551 35.872883 35.817771 35.765178 35.714670 35.666152 35.619220 35.573727 35.529301 35.485746 35.442727 35.400000
35.777778 35.832992 35.888530 35.944668 36.001777 36.060076 36.119980 36.181650 36.245541 36.311751 36.380769 36.452630 36.527852 36.606401 36.688823 36.775013 36.865536 36.960218 37.059638 37.163548 37.272538 37.386284 37.505385 37.629438 37.759045 37.893727 38.034080 38.179552 38.330731 38.486989 38.648903 38.815771 38.988156 39.165285 39.347702 39.534567 39.726403 39.922307 40.122779 40.326859 40.535023 40.746259 40.961019 41.178247 41.398371 41.620300 41.844437 42.069666 42.296370 42.523414 42.751162 42.978473 43.205696 43.431694 43.656801 43.879896 44.101302 44.319924 44.536075 44.748697 44.958097 45.163260 45.364491 45.560823 45.752561 45.938795 46.119826 46.294810 46.464042 46.626745 46.783207 46.932724 47.075574 47.211124 47.339640 47.460562 47.574137 47.679880 47.778017 47.868135 47.950433 48.024569 48.090714 48.148596 48.198350 48.239775 48.272969 48.297798 48.314323 48.322475 48.322275 48.313722 48.296795 48.271559 48.237954 48.196113 48.145935 48.087621 48.021034 47.946445 47.863682 47.773086 47.674456 47.568205 47.454105 47.332642 47.203567 47.067438 46.923990 46.773855 46.616753 46.453391 46.283478 46.107791 45.926035 45.739055 45.546550 45.349429 45.147389 44.941398 44.731149 44.517662 44.300627 44.081108 43.858790 43.634771 43.408730 43.181790 42.953619 42.725357 42.496659 42.268669 42.041025 41.814867 41.589813 41.366988 41.145989 40.927915 40.712340 40.500328 40.291429 40.086665 39.885562 39.689090 39.496751 39.309460 39.126695 38.949309 38.776761 38.609835 38.447972 38.291887 38.141005 37.995970 37.856193 37.722245 37.593530 37.470542 37.352681 37.240367 37.133000 37.030926 36.933548 36.841138 36.753109 36.669661 36.590222 36.514917 36.443194 36.375111 36.310137 36.248265 36.188990 36.132240 36.077544 36.024768 35.973477 35.923478 35.874378 35.825928 35.777778
36.155556 36.217154 36.279084 36.341733 36.405375 36.470444 36.537154 36.605986 36.677084 36.750970 36.827720 36.907892 36.991488 37.079095 37.170641 37.266739 37.367238 37.472769 37.583102 37.698883 37.819800 37.946507 38.078609 38.216764 38.360492 38.510452 38.666078 38.828022 38.995637 39.169562 39.349068 39.534780 39.725888 39.922997 40.125223 40.333147 40.545812 40.763776 40.986015 41.213058 41.443821 41.678808 41.916880 42.158513 42.402525 42.649364 42.897814 43.148298 43.399576 43.652048 43.904460 44.157194 44.408995 44.660227 44.909645 45.157602 45.402876 45.645808 45.885211 46.121419 46.353288 46.581150 46.803913 47.021905 47.234097 47.440815 47.641097 47.835266 48.022434 48.202917 48.375906 48.541710 48.699597 48.849866 48.991865 49.125877 49.251331 49.368488 49.476860 49.576680 49.667539 49.749639 49.822649 49.886738 49.941647 49.987508 50.024137 50.051624 50.069858 50.078884 50.078664 50.069199 50.050524 50.022592 49.985513 49.939195 49.883821 49.819258 49.745764 49.663166 49.571798 49.471453 49.362541 49.244826 49.118796 48.984190 48.841576 48.690673 48.532129 48.365646 48.191955 48.010747 47.822831 47.627890 47.426812 47.219274 47.006238 46.787379 46.563727 46.334955 46.102153 45.864993 45.624621 45.380701 45.134425 44.885452 44.635007 44.382740 44.129898 43.876120 43.622664 43.369151 43.116841 42.865335 42.615880 42.368055 42.123085 41.880522 41.641557 41.405718 41.174152 40.946357 40.723431 40.504844 40.291632 40.083242 39.880642 39.683253 39.491975 39.306204 39.126765 38.953035 38.785761 38.624302 38.469325 38.320179 38.177448 38.040472 37.909754 37.784631 37.665523 37.551770 37.443708 37.340688 37.242962 37.149894 37.061659 36.977637 36.897925 36.821926 36.749664 36.680569 36.614591 36.551196 36.490263 36.431294 36.374104 36.318238 36.263447 36.209321 36.155556
36.533333 36.601539 36.670140 36.739470 36.809981 36.881941 36.955854 37.031919 37.110684 37.192275 37.277281 37.365752 37.458312 37.554929 37.656257 37.762180 37.873379 37.989648 38.111688 38.239205 38.372909 38.512420 38.658453 38.810535 38.969383 39.134433 39.306396 39.484617 39.669795 39.861186 40.059474 40.263825 40.474904 40.691791 40.915128 41.143912 41.378759 41.618589 41.863989 42.113808 42.368603 42.627161 42.890005 43.155870 43.425250 43.696834 43.971086 44.246665 44.524006 44.801748 45.080304 45.358302 45.636137 45.912443 46.187597 46.460252 46.730773 46.997845 47.261825 47.521440 47.777042 48.027413 48.272902 48.512355 48.746119 48.973111 49.193678 49.406816 49.612868 49.810913 50.001287 50.183158 50.356852 50.521623 50.677785 50.824680 50.962602 51.090981 51.210088 51.319438 51.419271 51.509187 51.589390 51.659565 51.719874 51.770083 51.810310 51.840399 51.860424 51.870305 51.870067 51.859708 51.839204 51.808631 51.767915 51.717210 51.656395 51.585705 51.504975 51.414518 51.314131 51.204210 51.084516 50.955530 50.816981 50.669439 50.512609 50.347146 50.172737 49.990128 49.798989 49.600155 49.393288 49.179308 48.957873 48.729988 48.495305 48.254908 48.008450 47.757086 47.500468 47.239816 46.974778 46.706630 46.435015 46.161253 45.884980 45.607546 45.328576 45.049440 44.769746 44.490872 44.212404 43.935714 43.660366 43.387711 43.117286 42.850411 42.586594 42.327112 42.071442 41.820810 41.574662 41.334159 41.098719 40.869435 40.645694 40.428513 40.217251 40.012848 39.814638 39.623475 39.438673 39.260999 39.089752 38.925608 38.767856 38.617082 38.472568 38.334810 38.203090 38.077813 37.958266 37.844765 37.736608 37.634024 37.536326 37.443659 37.355357 37.271482 37.191394 37.115078 37.041926 36.971843 36.904263 36.839016 36.775577 36.713709 36.652936 36.592951 36.533333
36.911111 36.986194 37.061675 37.138018 37.215553 37.294800 37.376018 37.459778 37.546263 37.636090 37.729359 37.826731 37.928219 38.034519 38.145556 38.262053 38.383843 38.511673 38.645282 38.785431 38.931761 39.085046 39.244828 39.411882 39.585652 39.766910 39.955000 40.150685 40.353210 40.563324 40.780174 41.004488 41.235317 41.473368 41.717598 41.968685 42.225502 42.488692 42.757049 43.031182 43.309812 43.593514 43.880944 44.172642 44.467210 44.765156 45.065039 45.367334 45.670573 45.975202 46.279736 46.584598 46.888302 47.191250 47.491970 47.790850 48.086443 48.379128 48.667500 48.951931 49.231069 49.505285 49.773292 50.035459 50.290574 50.539008 50.779631 51.012811 51.237510 51.454093 51.661613 51.860429 52.049691 52.229745 52.399837 52.560298 52.710468 52.850655 52.980295 53.099666 53.208295 53.306424 53.393672 53.470240 53.535833 53.590607 53.634353 53.667176 53.688951 53.699731 53.699474 53.688179 53.665887 53.632542 53.588269 53.532959 53.466821 53.389697 53.301880 53.203167 53.093940 52.973953 52.843678 52.702836 52.551989 52.390829 52.220014 52.039213 51.849178 51.649563 51.441216 51.223780 50.998199 50.764108 50.522547 50.273147 50.017037 49.753848 49.484792 49.209502 48.929264 48.643710 48.354193 48.060343 47.763567 47.463489 47.161558 46.857387 46.552456 46.246362 45.940598 45.634742 45.330287 45.026788 44.725722 44.426616 44.130920 43.838129 43.549651 43.264949 42.985379 42.710367 42.441207 42.177292 41.919842 41.668217 41.423559 41.185195 40.954181 40.729816 40.513067 40.303205 40.101106 39.906020 39.718726 39.538459 39.365900 39.200274 39.042164 38.890791 38.746640 38.608933 38.478058 38.353245 38.234787 38.121928 38.014867 37.912868 37.816039 37.723672 37.635784 37.551701 37.471355 37.394109 37.319815 37.247879 37.178076 37.109861 37.042935 36.976807 36.911111
37.288889 37.371104 37.453787 37.537336 37.622284 37.708953 37.797935 37.889471 37.984207 38.082299 38.184439 38.290693 38.401794 38.517715 38.639223 38.766193 38.899418 39.038674 39.184774 39.337391 39.497352 39.664222 39.838837 40.020655 40.210510 40.407753 40.613212 40.826130 41.047320 41.275919 41.512721 41.756759 42.008800 42.267778 42.534428 42.807587 43.087957 43.374285 43.667235 43.965470 44.269616 44.578260 44.891991 45.209330 45.530827 45.854951 46.182217 46.511054 46.841942 47.173287 47.505539 47.837094 48.168381 48.497799 48.825759 49.150685 49.472972 49.791081 50.105402 50.414449 50.718606 51.016452 51.308374 51.593027 51.870798 52.140431 52.402314 52.655285 52.899732 53.134594 53.360255 53.575756 53.781473 53.976553 54.161357 54.335136 54.498231 54.649994 54.790741 54.919923 55.037820 55.143983 55.238650 55.321465 55.392621 55.451853 55.499302 55.534792 55.558410 55.570067 55.569792 55.557583 55.533411 55.497361 55.449347 55.389541 55.317800 55.234389 55.139112 55.032324 54.913784 54.783941 54.642512 54.490046 54.326225 54.151696 53.966115 53.770233 53.563685 53.347325 53.120776 52.884997 52.639601 52.385651 52.122759 51.852087 51.573246 51.287493 50.994443 50.695441 50.390101 50.079846 49.764293 49.444930 49.121370 48.795156 48.465892 48.135159 47.802551 47.469672 47.136095 46.803432 46.471235 46.141106 45.812567 45.487198 45.164487 44.845977 44.531119 44.221405 43.916248 43.617076 43.323264 43.036165 42.755116 42.481390 42.214284 41.954982 41.702749 41.458672 41.221985 40.993676 40.772953 40.560703 40.356111 40.159960 39.971421 39.791169 39.618369 39.453589 39.295992 39.146041 39.002903 38.866937 38.737322 38.614316 38.497115 38.385876 38.279822 38.179013 38.082703 37.990859 37.902771 37.818319 37.736837 37.658117 37.581544 37.506831 37.433415 37.360935 37.288889
37.666667 37.756319 37.846441 37.937573 38.030106 38.124647 38.221504 38.321344 38.424386 38.531349 38.642360 38.758186 38.878853 39.005168 39.137055 39.275354 39.419884 39.571508 39.729937 39.896050 40.069448 40.251020 40.440251 40.638034 40.843740 41.058256 41.280836 41.512357 41.751956 42.000492 42.256989 42.522279 42.795277 43.076781 43.365601 43.662499 43.966183 44.277376 44.594690 44.918806 45.248250 45.583661 45.923487 46.268323 46.616554 46.968735 47.323200 47.680462 48.038823 48.398761 48.758558 49.118664 49.477359 49.835069 50.190090 50.542833 50.891625 51.236868 51.576937 51.912230 52.241189 52.564210 52.879813 53.188398 53.488576 53.780750 54.063629 54.337622 54.601543 54.855801 55.099321 55.332508 55.554400 55.765391 55.964632 56.152501 56.328259 56.492259 56.643871 56.783417 56.910370 57.025012 57.126919 57.216325 57.292904 57.356838 57.407895 57.446198 57.471610 57.484192 57.483899 57.470728 57.444726 57.405826 57.354167 57.289621 57.212419 57.122377 57.019820 56.904510 56.776872 56.636620 56.484281 56.319530 56.142997 55.954326 55.754256 55.542407 55.319628 55.085523 54.841053 54.585814 54.320879 54.045839 53.761881 53.468594 53.167272 52.857510 52.540700 52.216441 51.886216 51.549629 51.208241 50.861657 50.511503 50.157379 49.800963 49.441845 49.081737 48.720213 48.359000 47.997650 47.637891 47.279244 46.923420 46.569907 46.220381 45.874292 45.533266 45.196711 44.866193 44.541075 44.222847 43.910832 43.606434 43.308932 43.019639 42.737792 42.464606 42.199282 41.942927 41.694712 41.455635 41.224840 41.003215 40.789882 40.585615 40.389525 40.202272 40.022958 39.852131 39.688894 39.533682 39.385608 39.244994 39.110970 38.983750 38.862484 38.747285 38.637330 38.532631 38.432403 38.336558 38.244356 38.155615 38.069644 37.986173 37.904567 37.824473 37.745317 37.666667