<?xml version="1.0"?>
<VTKFile type="ImageData" version="0.1" byte_order="LittleEndian">
  <ImageData WholeExtent="0 180 0 180 0 0" Origin="0.0 0.0 0.0" Spacing="0.05 0.05 1">
    <Piece Extent="0 180 0 180 0 0">
      <PointData Scalars="Temperature">
        <DataArray type="Float32" Name="Temperature" format="ascii">
32.000000 32.000000 32.000000 32.000000 32.000000 32.000000 32.000000 32.000000 32.000000 32.000000 32.000000 32.000000 32.000000 32.000000 32.000000 32.000000 32.000000 32.000000 32.000000 32.000000 32.000000 32.000000 32.000000 32.000000 32.000000 32.000000 32.000000 32.000000 32.000000 32.000000 32.000000 32.000000 32.000000 32.000000 32.000000 32.000000 32.000000 32.000000 32.000000 32.000000 32.000000 32.000000 32.000000 32.000000 32.000000 32.000000 32.000000 32.000000 32.000000 32.000000 32.000000 32.000000 32.000000 32.000000 32.000000 32.000000 32.000000 32.000000 32.000000 32.000000 32.000000 32.000000 32.000000 32.000000 32.000000 32.000000 32.000000 32.000000 32.000000 32.000000 32.000000 32.000000 32.000000 32.000000 32.000000 32.000000 32.000000 32.000000 32.000000 32.000000 32.000000 32.000000 32.000000 32.000000 32.000000 32.000000 32.000000 32.000000 32.000000 32.000000 32.000000 32.000000 32.000000 32.000000 32.000000 32.000000 32.000000 32.000000 32.000000 32.000000 32.000000 32.000000 32.000000 32.000000 32.000000 32.000000 32.000000 32.000000 32.000000 32.000000 32.000000 32.000000 32.000000 32.000000 32.000000 32.000000 32.000000 32.000000 32.000000 32.000000 32.000000 32.000000 32.000000 32.000000 32.000000 32.000000 32.000000 32.000000 32.000000 32.000000 32.000000 32.000000 32.000000 32.000000 32.000000 32.000000 32.000000 32.000000 32.000000 32.000000 32.000000 32.000000 32.000000 32.000000 32.000000 32.000000 32.000000 32.000000 32.000000 32.000000 32.000000 32.000000 32.000000 32.000000 32.000000 32.000000 32.000000 32.000000 32.000000 32.000000 32.000000 32.000000 32.000000 32.000000 32.000000 32.000000 32.000000 32.000000 32.000000 32.000000 32.000000 32.000000 32.000000 32.000000 32.000000 32.000000 32.000000 32.000000 32.000000 32.000000 32.000000
32.377778 32.394771 32.411784 32.428838 32.445949 32.463141 32.480428 32.497835 32.515373 32.533068 32.550927 32.568978 32.587224 32.605695 32.624389 32.643335 32.662528 32.681998 32.701735 32.721768 32.742084 32.762711 32.783630 32.804870 32.826406 32.848267 32.870423 32.892901 32.915667 32.938745 32.962099 32.985750 33.009655 33.033836 33.058246 33.082904 33.107758 33.132825 33.158051 33.183449 33.208962 33.234602 33.260309 33.286091 33.311886 33.337703 33.363475 33.389210 33.414841 33.440373 33.465740 33.490944 33.515920 33.540670 33.565128 33.589297 33.613111 33.636573 33.659620 33.682253 33.704413 33.726101 33.747261 33.767895 33.787949 33.807426 33.826276 33.844503 33.862060 33.878952 33.895137 33.910619 33.925362 33.939369 33.952607 33.965083 33.976766 33.987662 33.997747 34.007024 34.015474 34.023101 34.029889 34.035840 34.040944 34.045201 34.048604 34.051155 34.052848 34.053684 34.053661 34.052780 34.051042 34.048447 34.044999 34.040696 34.035548 34.029551 34.022718 34.015046 34.006551 33.997228 33.987099 33.976158 33.964430 33.951910 33.938627 33.924576 33.909791 33.894266 33.878039 33.861105 33.843508 33.825241 33.806353 33.786839 33.766750 33.746083 33.724891 33.703173 33.680987 33.658329 33.635261 33.611781 33.587953 33.563774 33.539309 33.514557 33.489584 33.464388 33.439036 33.413524 33.387919 33.362218 33.336487 33.310719 33.284982 33.259265 33.233635 33.208080 33.182662 33.157370 33.132262 33.107324 33.082612 33.058110 33.033868 33.009869 32.986161 32.962722 32.939597 32.916762 32.894257 32.872057 32.850197 32.828650 32.807447 32.786559 32.766012 32.745776 32.725873 32.706273 32.686990 32.667996 32.649301 32.630874 32.612724 32.594817 32.577159 32.559718 32.542493 32.525453 32.508596 32.491890 32.475328 32.458882 32.442541 32.426278 32.410078 32.393917 32.377778
32.755556 32.789558 32.823601 32.857721 32.891964 32.926358 32.960955 32.995778 33.030879 33.066275 33.102022 33.138129 33.174655 33.211599 33.249022 33.286916 33.325341 33.364282 33.403798 33.443865 33.484542 33.525795 33.567683 33.610161 33.653287 33.697006 33.741375 33.786329 33.831920 33.878076 33.924845 33.972145 34.020022 34.068384 34.117272 34.166587 34.216366 34.266501 34.317024 34.367822 34.418923 34.470205 34.521692 34.573260 34.624926 34.676562 34.728183 34.779656 34.830994 34.882062 34.932870 34.983283 35.033307 35.082811 35.131799 35.180138 35.227835 35.274761 35.320920 35.366188 35.410570 35.453947 35.496325 35.537592 35.577754 35.616706 35.654456 35.690907 35.726067 35.759847 35.792257 35.823218 35.852738 35.880747 35.907256 35.932202 35.955595 35.977383 35.997574 36.016125 36.033044 36.048294 36.061883 36.073783 36.084000 36.092513 36.099326 36.104426 36.107815 36.109486 36.109441 36.107680 36.104201 36.099011 36.092108 36.083505 36.073198 36.061208 36.047528 36.032188 36.015179 35.996538 35.976257 35.954380 35.930897 35.905862 35.879265 35.851168 35.821561 35.790516 35.758021 35.724158 35.688918 35.652388 35.614562 35.575536 35.535303 35.493969 35.451528 35.408092 35.363657 35.318340 35.272139 35.225177 35.177452 35.129091 35.080090 35.030583 34.980565 34.930169 34.879389 34.828361 34.777077 34.725671 34.674133 34.622595 34.571043 34.519608 34.468271 34.417160 34.366250 34.315665 34.265377 34.215501 34.166006 34.117002 34.068450 34.020454 33.972971 33.926096 33.879782 33.834115 33.789045 33.744648 33.700871 33.657780 33.615320 33.573546 33.532401 33.491933 33.452080 33.412880 33.374272 33.336284 33.298854 33.262001 33.225663 33.189849 33.154499 33.119614 33.085133 33.051051 33.017307 32.983890 32.950742 32.917843 32.885139 32.852602 32.820184 32.787850 32.755556
33.133333 33.184377 33.235478 33.286702 33.338098 33.389739 33.441664 33.493951 33.546630 33.599783 33.653429 33.707654 33.762465 33.817952 33.874108 33.931025 33.988684 34.047178 34.106473 34.166663 34.227699 34.289674 34.352528 34.416347 34.481058 34.546747 34.613324 34.680870 34.749283 34.818638 34.888820 34.959898 35.031744 35.104420 35.177785 35.251896 35.326600 35.401946 35.477769 35.554114 35.630804 35.707878 35.785151 35.862655 35.940198 36.017806 36.095281 36.172645 36.249697 36.326451 36.402708 36.478477 36.553558 36.627959 36.701483 36.774134 36.845718 36.916242 36.985517 37.053547 37.120152 37.185339 37.248935 37.310947 37.371215 37.429746 37.486391 37.541161 37.593916 37.644671 37.693299 37.739813 37.784103 37.826182 37.865951 37.903425 37.938519 37.971247 38.001536 38.029401 38.054779 38.077686 38.098069 38.115943 38.131268 38.144053 38.154272 38.161932 38.167015 38.169526 38.169458 38.166813 38.161595 38.153801 38.143446 38.130526 38.115066 38.097057 38.076538 38.053497 38.027984 37.999984 37.969561 37.936698 37.901470 37.863863 37.823961 37.781751 37.737332 37.690689 37.641935 37.591057 37.538180 37.483292 37.426533 37.367891 37.307518 37.245405 37.181715 37.116440 37.049754 36.981651 36.912313 36.841736 36.770108 36.697425 36.623883 36.549476 36.474405 36.398661 36.322447 36.245753 36.168782 36.091519 36.014167 35.936706 35.859336 35.782030 35.704983 35.628165 35.551761 35.475736 35.400266 35.325309 35.251032 35.177386 35.104527 35.032398 34.961145 34.890703 34.821206 34.752583 34.684954 34.618242 34.552554 34.487808 34.424097 34.361334 34.299597 34.238798 34.178999 34.120110 34.062180 34.005114 33.948951 33.893594 33.839067 33.785276 33.732230 33.679837 33.628094 33.576911 33.526273 33.476092 33.426344 33.376946 33.327861 33.279011 33.230352 33.181811 33.133333
33.511111 33.579240 33.647451 33.715817 33.784428 33.853345 33.922668 33.992444 34.062779 34.133706 34.205340 34.277695 34.350890 34.424927 34.499925 34.575868 34.652880 34.730927 34.810130 34.890439 34.971975 35.054667 35.138635 35.223790 35.310247 35.397897 35.486852 35.576984 35.668398 35.760947 35.854730 35.949582 36.045593 36.142581 36.240628 36.339535 36.439374 36.539933 36.641273 36.743168 36.845671 36.948543 37.051828 37.155276 37.258923 37.362512 37.466071 37.569336 37.672328 37.774780 37.876709 37.977846 38.078203 38.177513 38.275785 38.372756 38.468435 38.562563 38.655150 38.745947 38.834962 38.921959 39.006947 39.089703 39.170237 39.248343 39.324032 39.397112 39.467599 39.535316 39.600283 39.662339 39.721505 39.777639 39.830763 39.880751 39.927626 39.971280 40.011734 40.048898 40.082792 40.113341 40.140563 40.164400 40.184865 40.201915 40.215562 40.225776 40.232564 40.235912 40.235822 40.232295 40.225327 40.214934 40.201107 40.183877 40.163232 40.139216 40.111814 40.081085 40.047012 40.009668 39.969034 39.925201 39.878149 39.827983 39.774684 39.718375 39.659036 39.596809 39.531675 39.463792 39.393144 39.319906 39.244065 39.165813 39.085137 39.002248 38.917134 38.830020 38.740897 38.650004 38.557333 38.463132 38.367396 38.270383 38.172086 38.072769 37.972425 37.871323 37.769450 37.667079 37.564194 37.461064 37.357670 37.254278 37.150859 37.047677 36.944693 36.842164 36.740043 36.638574 36.537705 36.437666 36.338395 36.240109 36.142737 36.046480 35.951258 35.857257 35.764387 35.672816 35.582446 35.493429 35.405659 35.319267 35.234143 35.150399 35.067919 34.986797 34.906912 34.828340 34.750956 34.674817 34.599799 34.525940 34.453114 34.381342 34.310500 34.240592 34.171496 34.103200 34.035585 33.968624 33.902204 33.836282 33.770753 33.705560 33.640604 33.575818 33.511111
33.888889 33.974168 34.059543 34.145125 34.230996 34.317276 34.404032 34.491395 34.579414 34.668228 34.757867 34.848477 34.940069 35.032793 35.126639 35.221761 35.318127 35.415891 35.515000 35.615607 35.717637 35.821239 35.926315 36.033011 36.141204 36.251036 36.362360 36.475310 36.589717 36.705705 36.823082 36.941964 37.062136 37.183703 37.306429 37.430409 37.555386 37.681443 37.808304 37.936042 38.064365 38.193332 38.322639 38.452333 38.582098 38.711972 38.841628 38.971097 39.100046 39.228497 39.356114 39.482914 39.608562 39.733069 39.856104 39.977675 40.097457 40.215459 40.331366 40.445184 40.556613 40.665660 40.772040 40.875763 40.976561 41.074447 41.169171 41.260751 41.348956 41.433808 41.515097 41.592847 41.666871 41.737195 41.803652 41.866270 41.924905 41.979583 42.030183 42.076729 42.119119 42.157378 42.191422 42.221272 42.246864 42.268215 42.285280 42.298070 42.306559 42.310752 42.310640 42.306223 42.297511 42.284497 42.267208 42.245633 42.219816 42.189742 42.155474 42.116991 42.074376 42.027606 41.976783 41.921881 41.863024 41.800185 41.733508 41.662967 41.588727 41.510764 41.429265 41.344207 41.255801 41.164025 41.069110 40.971041 40.870068 40.766177 40.659641 40.550447 40.438885 40.324945 40.208934 40.090842 39.970988 39.849364 39.726299 39.601783 39.476152 39.349394 39.221848 39.093499 38.964685 38.835384 38.705935 38.576306 38.446829 38.317466 38.188538 38.059997 37.932154 37.804948 37.678677 37.553269 37.429005 37.305801 37.183920 37.063267 36.944083 36.826264 36.710030 36.595265 36.482167 36.370609 36.260769 36.152510 36.045986 35.941053 35.837842 35.736202 35.636241 35.537804 35.440974 35.345594 35.251726 35.159209 35.068084 34.978191 34.889547 34.801996 34.715535 34.630011 34.545400 34.461556 34.378436 34.295901 34.213891 34.132276 34.050979 33.969881 33.888889
34.266667 34.369169 34.471796 34.574655 34.677886 34.781578 34.885883 34.990871 35.096704 35.203432 35.311225 35.420109 35.530261 35.641684 35.754559 35.868863 35.984780 36.102261 36.221489 36.342390 36.465144 36.589647 36.716079 36.844306 36.974501 37.106504 37.240478 37.376236 37.513932 37.653350 37.794633 37.937539 38.082198 38.228341 38.376086 38.525139 38.675604 38.827162 38.979906 39.133495 39.288006 39.443082 39.598784 39.754740 39.911000 40.067177 40.223310 40.379003 40.534286 40.688756 40.842435 40.994919 41.146223 41.295946 41.444099 41.590286 41.734516 41.876403 42.015957 42.152805 42.286956 42.418057 42.546119 42.670807 42.792136 42.909795 43.023801 43.133867 43.240015 43.341982 43.439795 43.533217 43.622277 43.706765 43.786712 43.861934 43.932463 43.998139 44.058996 44.114899 44.165878 44.211824 44.252762 44.288607 44.319380 44.345018 44.365536 44.380894 44.391101 44.396135 44.396001 44.390699 44.380225 44.364599 44.343812 44.317906 44.286865 44.250752 44.209545 44.163331 44.112083 44.055912 43.994788 43.928844 43.858049 43.782563 43.702353 43.617604 43.528285 43.434609 43.336544 43.234330 43.127941 43.017640 42.903406 42.785528 42.663989 42.539101 42.410851 42.279575 42.145263 42.008271 41.868591 41.726596 41.582281 41.436032 41.287842 41.138109 40.986824 40.834392 40.680799 40.526452 40.371330 40.215841 40.059955 39.904074 39.748158 39.592601 39.437352 39.282791 39.128854 38.975906 38.823870 38.673093 38.523482 38.375363 38.228632 38.083589 37.940115 37.798489 37.658576 37.520630 37.384503 37.250420 37.118226 36.988116 36.859923 36.733818 36.609623 36.487480 36.367207 36.248917 36.132424 36.017811 35.904891 35.793721 35.684111 35.576094 35.469480 35.364277 35.260299 35.157528 35.055786 34.955030 34.855091 34.755904 34.657309 34.559222 34.461493 34.364020 34.266667
34.644444 34.764265 34.884223 35.004471 35.125127 35.246360 35.368265 35.491026 35.614713 35.739521 35.865494 35.992837 36.121567 36.251893 36.383806 36.517517 36.652987 36.790430 36.929774 37.071234 37.214704 37.360395 37.508171 37.658236 37.810420 37.964919 38.121532 38.280443 38.441417 38.604629 38.769810 38.937121 39.106262 39.277378 39.450141 39.624680 39.800636 39.978123 40.156757 40.336634 40.517347 40.698976 40.881093 41.063762 41.246538 41.429473 41.612107 41.794478 41.976121 42.157061 42.336827 42.515439 42.692424 42.867796 43.041089 43.212311 43.381006 43.547181 43.710395 43.870654 44.027536 44.181050 44.330794 44.476782 44.618637 44.756377 44.889652 45.018486 45.142557 45.261894 45.376207 45.485527 45.589595 45.688447 45.781852 45.869850 45.952241 46.029062 46.100145 46.165526 46.225065 46.278795 46.326602 46.368516 46.404450 46.434428 46.458386 46.476343 46.488261 46.494148 46.493992 46.487794 46.475565 46.457296 46.433026 46.402737 46.366491 46.324264 46.276145 46.222103 46.162252 46.096559 46.025164 45.948032 45.865332 45.777026 45.683315 45.584160 45.479791 45.370174 45.255569 45.135945 45.011593 44.882486 44.748945 44.610950 44.468850 44.322629 44.172666 44.018949 43.861880 43.701453 43.538092 43.371792 43.202998 43.031703 42.858368 42.682985 42.506023 42.327472 42.147806 41.967009 41.785557 41.603422 41.421078 41.238488 41.056116 40.873911 40.692326 40.511296 40.331256 40.152126 39.974321 39.797744 39.622788 39.449338 39.277762 39.107928 38.940174 38.774355 38.610778 38.449282 38.290144 38.133187 37.978657 37.826365 37.676524 37.528934 37.383775 37.240838 37.100270 36.961857 36.825712 36.691616 36.559652 36.429598 36.301505 36.175153 36.050563 35.927516 35.806004 35.685816 35.566914 35.449096 35.332297 35.216325 35.101092 34.986417 34.872189 34.758242 34.644444
35.022222 35.159463 35.296870 35.434591 35.572811 35.711652 35.851317 35.991902 36.133623 36.276549 36.420907 36.566734 36.714268 36.863512 37.014711 37.167836 37.323131 37.480535 37.640291 37.802301 37.966808 38.133675 38.303139 38.475027 38.649568 38.826549 39.006190 39.188240 39.372905 39.559899 39.749412 39.941119 40.135196 40.331283 40.529535 40.729561 40.931498 41.134921 41.339948 41.546127 41.753557 41.961758 42.170812 42.380218 42.590040 42.799760 43.009425 43.218506 43.427036 43.634478 43.840854 44.045624 44.248803 44.449853 44.648783 44.845066 45.038705 45.229188 45.416520 45.600204 45.780248 45.956181 46.128012 46.295297 46.458052 46.615863 46.768751 46.916334 47.058640 47.195321 47.326412 47.451599 47.570922 47.684102 47.791181 47.891917 47.986353 48.074282 48.155745 48.230569 48.298794 48.360275 48.415051 48.463008 48.504176 48.538472 48.565919 48.586462 48.600115 48.606850 48.606673 48.599583 48.585576 48.564679 48.536876 48.502225 48.460702 48.412390 48.357258 48.295421 48.226841 48.151662 48.069844 47.981562 47.886772 47.785686 47.678258 47.564732 47.445067 47.319542 47.188118 47.051109 46.908483 46.760588 46.607398 46.449296 46.286262 46.118712 45.946630 45.770466 45.590209 45.406334 45.218834 45.028210 44.834457 44.638093 44.439114 44.238052 44.034900 43.830200 43.623939 43.416662 43.208348 42.999541 42.790206 42.580882 42.371521 42.162649 41.954202 41.746688 41.540026 41.334705 41.130624 40.928246 40.727451 40.528674 40.331776 40.137160 39.944669 39.754671 39.566992 39.381965 39.199397 39.019587 38.842327 38.667876 38.496013 38.326962 38.160488 37.996778 37.835590 37.677070 37.520972 37.367405 37.216118 37.067186 36.920355 36.775665 36.632865 36.491961 36.352707 36.215076 36.078828 35.943908 35.810085 35.677274 35.545259 35.413926 35.283075 35.152568 35.022222
35.400000 35.554784 35.709746 35.865085 36.020953 36.177572 36.335063 36.493665 36.653471 36.814732 36.977509 37.142065 37.308423 37.476857 37.647352 37.820186 37.995308 38.172995 38.353156 38.536068 38.721599 38.910019 39.101156 39.295272 39.492151 39.692046 39.894698 40.100344 40.308686 40.519944 40.733776 40.950386 41.169392 41.390977 41.614718 41.840780 42.068703 42.298628 42.530062 42.763123 42.997289 43.232656 43.468673 43.705418 43.942316 44.179427 44.416160 44.652555 44.888011 45.122556 45.355580 45.587100 45.816509 46.043815 46.268416 46.490317 46.708930 46.924255 47.135725 47.343342 47.546562 47.745390 47.939312 48.128339 48.311988 48.490278 48.662762 48.829466 48.989982 49.144343 49.292180 49.433532 49.568070 49.695839 49.816549 49.930249 50.036688 50.135914 50.227715 50.312139 50.389010 50.458370 50.520079 50.574176 50.620550 50.659234 50.690150 50.713320 50.728698 50.736296 50.736097 50.728103 50.712328 50.688760 50.657447 50.618365 50.571593 50.517098 50.454991 50.385232 50.307963 50.223141 50.130943 50.031319 49.924486 49.810393 49.689292 49.561135 49.426213 49.284481 49.136272 48.981543 48.820669 48.653614 48.480791 48.302174 48.118212 47.928888 47.734687 47.535597 47.332140 47.124308 46.912650 46.697166 46.478427 46.256434 46.031779 45.804460 45.575083 45.343641 45.110748 44.876389 44.641178 44.405090 44.168732 43.932066 43.695689 43.459544 43.224212 42.989618 42.756321 42.524223 42.293858 42.065108 41.838475 41.613817 41.391605 41.171674 40.954458 40.739771 40.528008 40.318963 40.112989 39.909864 39.709898 39.512851 39.318994 39.128070 38.940308 38.755441 38.573654 38.394672 38.218638 38.045270 37.874671 37.706557 37.540990 37.377686 37.216669 37.057658 36.900640 36.745341 36.591713 36.439491 36.288593 36.138768 35.989902 35.841760 35.694199 35.547002 35.400000
35.777778 35.950232 36.122898 36.295959 36.469652 36.644130 36.819650 36.996332 37.174452 37.354095 37.535549 37.718862 37.904333 38.091970 38.282079 38.474627 38.669921 38.867887 39.068830 39.272632 39.479594 39.689551 39.902798 40.119122 40.338808 40.561595 40.787755 41.016980 41.249523 41.485030 41.723735 41.965238 42.209753 42.456832 42.706667 42.958768 43.213303 43.469741 43.728225 43.988190 44.249751 44.512311 44.775963 45.040081 45.304736 45.569278 45.833759 46.097513 46.360574 46.622267 46.882611 47.140927 47.397224 47.650828 47.901740 48.149297 48.393497 48.633697 48.869892 49.101463 49.328411 49.550147 49.766676 49.977444 50.182464 50.381222 50.573740 50.759543 50.938664 51.110672 51.275608 51.433084 51.583149 51.725461 51.860073 51.986687 52.105359 52.215833 52.318165 52.412141 52.497815 52.575011 52.643778 52.703977 52.755649 52.798693 52.833138 52.858918 52.876052 52.884506 52.884286 52.875394 52.857821 52.831602 52.796717 52.753234 52.701121 52.640482 52.571275 52.493638 52.407524 52.313107 52.210335 52.099422 51.980313 51.853265 51.718220 51.575479 51.424988 51.267093 51.101743 50.929330 50.749811 50.563621 50.370727 50.171607 49.966239 49.755142 49.538303 49.316279 49.089067 48.857258 48.620855 48.380481 48.136140 47.888482 47.637511 47.383894 47.127632 46.869405 46.609207 46.347723 46.084934 45.821523 45.557458 45.293413 45.029337 44.765889 44.502998 44.241301 43.980703 43.721814 43.464517 43.209389 42.956287 42.705752 42.457617 42.212382 41.969856 41.730498 41.494092 41.261052 41.031140 40.804726 40.581552 40.361939 40.145612 39.932847 39.723352 39.517356 39.314557 39.115135 38.918782 38.725630 38.535366 38.348079 38.163452 37.981532 37.802003 37.624870 37.449824 37.276828 37.105582 36.936012 36.767830 36.600925 36.435027 36.269989 36.105562 35.941568 35.777778
36.155556 36.345831 36.536327 36.727290 36.918907 37.111453 37.305079 37.500080 37.696572 37.894864 38.095034 38.297405 38.502012 38.709186 38.918918 39.131545 39.347010 39.565653 39.787367 40.012490 40.240867 40.472826 40.708162 40.947194 41.189663 41.435877 41.685523 41.938890 42.195616 42.455969 42.719534 42.986557 43.256572 43.529801 43.805730 44.084551 44.365708 44.649364 44.934918 45.222509 45.511495 45.801987 46.093311 46.385552 46.678007 46.970737 47.263017 47.554886 47.845606 48.135198 48.422916 48.708767 48.992005 49.272628 49.549900 49.823810 50.093641 50.359380 50.620333 50.876491 51.127189 51.372425 51.611569 51.844630 52.071017 52.290749 52.503282 52.708644 52.906339 53.096407 53.278400 53.452366 53.617908 53.775083 53.923542 54.063345 54.194192 54.316146 54.428953 54.532674 54.627098 54.712283 54.788060 54.854480 54.911413 54.958899 54.996848 55.025287 55.044164 55.053491 55.053251 55.043444 55.024087 54.995167 54.956738 54.908770 54.851356 54.784455 54.708195 54.622528 54.527621 54.423419 54.310131 54.187696 54.056371 53.916091 53.767159 53.609514 53.443506 53.269080 53.086634 52.896121 52.697991 52.492204 52.279260 52.059131 51.832363 51.598941 51.359457 51.113905 50.862918 50.606499 50.345320 50.079388 49.809405 49.535384 49.258049 48.977411 48.694214 48.408461 48.120906 47.831542 47.541124 47.249632 46.957813 46.665630 46.373816 46.082311 45.791828 45.502284 45.214363 44.927955 44.643713 44.361498 44.081924 43.804825 43.530773 43.259573 42.991753 42.727091 42.466064 42.208426 41.954605 41.704331 41.457980 41.215261 40.976499 40.741384 40.510190 40.282591 40.058810 39.838509 39.621860 39.408519 39.198605 38.991772 38.788091 38.587214 38.389166 38.193604 38.000506 37.809536 37.620632 37.433469 37.247942 37.063744 36.880730 36.698613 36.517213 36.336264 36.155556
36.533333 36.741580 36.950084 37.159070 37.368822 37.579531 37.791506 38.004898 38.220036 38.437030 38.656226 38.877687 39.101773 39.328500 39.558234 39.790943 40.026995 40.266306 40.509245 40.755673 41.005954 41.259892 41.517844 41.779559 42.045376 42.314989 42.588722 42.866209 43.147754 43.432934 43.722028 44.014559 44.310778 44.610153 44.912908 45.218457 45.526995 45.837886 46.151294 46.466540 46.783753 47.102218 47.422032 47.742445 48.063529 48.384502 48.705413 49.025460 49.344668 49.662224 49.978136 50.291586 50.602569 50.910273 51.214683 51.515003 51.811212 52.102538 52.388962 52.669740 52.944861 53.213617 53.476005 53.731361 53.979695 54.220389 54.453465 54.678359 54.895105 55.103192 55.302666 55.493071 55.674464 55.846442 56.009069 56.161998 56.305295 56.438664 56.562174 56.675577 56.778938 56.872055 56.954990 57.027582 57.089883 57.141776 57.183299 57.214376 57.235029 57.245222 57.244962 57.234249 57.213074 57.181477 57.139432 57.087018 57.024195 56.951080 56.867623 56.773983 56.670098 56.556173 56.432141 56.298251 56.154433 56.000988 55.837846 55.665358 55.483459 55.292555 55.092589 54.884019 54.666799 54.441445 54.207921 53.966796 53.718049 53.462301 53.199543 52.930444 52.655008 52.373948 52.087276 51.795743 51.499367 51.198929 50.894450 50.586732 50.275794 49.962453 49.646718 49.329414 49.010535 48.690903 48.370495 48.050122 47.729737 47.410131 47.091234 46.773809 46.457757 46.143808 45.831831 45.522518 45.215707 44.912045 44.611338 44.314185 44.020362 43.730415 43.444092 43.161884 42.883511 42.609410 42.339275 42.073487 41.811718 41.554292 41.300863 41.051698 40.806435 40.565287 40.327881 40.094373 39.864385 39.638020 39.414896 39.195063 38.978143 38.764136 38.552669 38.343693 38.136848 37.932038 37.728918 37.527349 37.327004 37.127705 36.929147 36.731116 36.533333
36.911111 37.137505 37.364162 37.591379 37.819382 38.048497 38.278910 38.510970 38.744820 38.980829 39.219093 39.459997 39.703587 39.950257 40.200002 40.453221 40.709855 40.970304 41.234451 41.502694 41.774855 42.051324 42.331863 42.616851 42.905987 43.199631 43.497422 43.799699 44.106039 44.416754 44.731361 45.050144 45.372560 45.698861 46.028445 46.361533 46.697466 47.036433 47.377722 47.721486 48.066969 48.414288 48.762645 49.112127 49.461902 49.812024 50.161636 50.510766 50.858538 51.204958 51.549141 51.891077 52.229880 52.565528 52.897147 53.224709 53.547360 53.865069 54.177013 54.483168 54.782744 55.075727 55.361374 55.639683 55.909959 56.172217 56.425816 56.670786 56.906546 57.133138 57.350043 57.557316 57.754496 57.941651 58.118378 58.284752 58.440427 58.585480 58.719621 58.842927 58.955157 59.056384 59.146415 59.225315 59.292936 59.349330 59.394395 59.428165 59.450579 59.461657 59.461377 59.449739 59.426765 59.392434 59.346809 59.289853 59.221670 59.142208 59.051614 58.949824 58.837031 58.713162 58.578459 58.432844 58.276610 58.109679 57.932398 57.744692 57.546967 57.339156 57.121721 56.894607 56.658337 56.412870 56.158788 55.896065 55.625343 55.346611 55.060566 54.767212 54.467297 54.160838 53.848628 53.530693 53.207866 52.880175 52.548483 52.212820 51.874068 51.532251 51.188263 50.842115 50.494704 50.146023 49.796960 49.447486 49.098473 48.749865 48.402507 48.056314 47.712096 47.369736 47.030004 46.692748 46.358693 46.027650 45.700293 45.376401 45.056592 44.740609 44.429016 44.121522 43.818632 43.520026 43.226147 42.936651 42.651917 42.371581 42.095959 41.824667 41.557963 41.295447 41.037316 40.783163 40.533124 40.286786 40.044229 39.805041 39.569244 39.336430 39.106570 38.879265 38.654434 38.431692 38.210909 37.991719 37.773949 37.557252 37.341415 37.126119 36.911111
37.288889 37.533599 37.778613 38.024199 38.270693 38.518321 38.767449 39.018258 39.271136 39.526216 39.783905 40.044284 40.307775 40.574402 40.844597 41.118326 41.396023 41.677596 41.963476 42.253509 42.548119 42.847088 43.150828 43.459056 43.772166 44.089808 44.412358 44.739396 45.071272 45.407500 45.748402 46.093425 46.442858 46.796083 47.153354 47.513993 47.878214 48.245281 48.615371 48.987695 49.362390 49.738619 50.116482 50.495101 50.874542 51.253892 51.633186 52.011485 52.388799 52.764173 53.137595 53.508106 53.875678 54.239357 54.599106 54.953989 55.303964 55.648123 55.986428 56.318007 56.642830 56.960072 57.269715 57.570985 57.863883 58.147692 58.422431 58.687446 58.942772 59.187822 59.422647 59.646725 59.860122 60.062380 60.253575 60.433314 60.601679 60.758334 60.903366 61.036495 61.157805 61.267068 61.364361 61.449507 61.522569 61.583419 61.632104 61.668539 61.692753 61.704706 61.704407 61.691855 61.667042 61.630008 61.580724 61.519274 61.445611 61.359863 61.261968 61.152103 61.030191 60.896460 60.750826 60.593570 60.424606 60.244271 60.052482 59.849635 59.635655 59.411000 59.175606 58.929998 58.674125 58.408577 58.133321 57.849014 57.555638 57.253914 56.943844 56.626206 56.301018 55.969114 55.630523 55.286124 54.935958 54.580940 54.221113 53.857421 53.489904 53.119524 52.746311 52.371235 51.994308 51.616496 51.237793 50.859147 50.480525 50.102854 49.726066 49.351056 48.977723 48.606919 48.238505 47.873288 47.511091 47.152664 46.797793 46.447173 46.100549 45.758554 45.420900 45.088155 44.759996 44.436928 44.118596 43.805438 43.497074 43.193874 42.895437 42.602065 42.313339 42.029498 41.750106 41.475340 41.204757 40.938468 40.676028 40.417489 40.162407 39.910775 39.662156 39.416487 39.173344 38.932611 38.693880 38.456985 38.221540 37.987334 37.754005 37.521300 37.288889
37.666667 37.929890 38.193422 38.457611 38.722724 38.989139 39.257079 39.526950 39.798925 40.073433 40.350591 40.630846 40.914259 41.201289 41.491936 41.786665 42.085413 42.388646 42.696236 43.008642 43.325670 43.647768 43.974673 44.306817 44.643865 44.986229 45.333501 45.686070 46.043454 46.406011 46.773189 47.145310 47.521752 47.902801 48.287766 48.676892 49.069423 49.465563 49.864494 50.266378 50.670342 51.076506 51.483948 51.892746 52.301939 52.711570 53.120642 53.529166 53.936125 54.341502 54.744269 55.144389 55.540832 55.933550 56.321524 56.704701 57.082085 57.453624 57.818358 58.176241 58.526359 58.868680 59.202344 59.527335 59.842855 60.148909 60.444766 60.730449 61.005299 61.269361 61.522045 61.763415 61.992952 62.210734 62.416312 62.609774 62.790737 62.959295 63.115127 63.258326 63.388629 63.506124 63.610604 63.702144 63.780587 63.845996 63.898259 63.937420 63.963414 63.976262 63.975944 63.962459 63.935829 63.896031 63.843131 63.777084 63.698002 63.605823 63.500704 63.382567 63.251624 63.107784 62.951312 62.782115 62.600515 62.406417 62.200208 61.981798 61.751640 61.509656 61.256367 60.991709 60.716277 60.430024 60.133617 59.827031 59.511002 59.185527 58.851408 58.508663 58.158158 57.799927 57.434890 57.063095 56.685509 56.302187 55.914132 55.521401 55.125019 54.725040 54.322501 53.917442 53.510902 53.102900 52.694466 52.285589 51.877279 51.469495 51.063213 50.658355 50.255858 49.855602 49.458476 49.064319 48.673966 48.287211 47.904829 47.526573 47.153152 46.784278 46.420594 46.061774 45.708389 45.360078 45.017342 44.679789 44.347847 44.021097 43.699896 43.383804 43.073106 42.767344 42.466734 42.170807 41.879711 41.592969 41.310664 41.032319 40.757951 40.487089 40.219689 39.955290 39.693789 39.434741 39.177988 38.923105 38.669884 38.417923 38.166969 37.916649 37.666667