# vtk DataFile Version 3.0
Steady-state temperature (Jacobi)
ASCII
DATASET STRUCTURED_POINTS
DIMENSIONS 181 181 1
ORIGIN 0.0 0.0 0.0
SPACING 0.05 0.05 1.0
POINT_DATA 32761
SCALARS Temperature float 1
LOOKUP_TABLE default
32.000000 32.000000 32.000000 32.000000 32.000000 32.000000 32.000000 32.000000
32.000000 32.000000 32.000000 32.000000 32.000000 32.000000 32.000000 32.000000
32.000000 32.000000 32.000000 32.000000 32.000000 32.000000 32.000000 32.000000
32.000000 32.000000 32.000000 32.000000 32.000000 32.000000 32.000000 32.000000
32.000000 32.000000 32.000000 32.000000 32.000000 32.000000 32.000000 32.000000
32.000000 32.000000 32.000000 32.000000 32.000000 32.000000 32.000000 32.000000
32.000000 32.000000 32.000000 32.000000 32.000000 32.000000 32.000000 32.000000
32.000000 32.000000 32.000000 32.000000 32.000000 32.000000 32.000000 32.000000
32.000000 32.000000 32.000000 32.000000 32.000000 32.000000 32.000000 32.000000
32.000000 32.000000 32.000000 32.000000 32.000000 32.000000 32.000000 32.000000
32.000000 32.000000 32.000000 32.000000 32.000000 32.000000 32.000000 32.000000
32.000000 32.000000 32.000000 32.000000 32.000000 32.000000 32.000000 32.000000
32.000000 32.000000 32.000000 32.000000 32.000000 32.000000 32.000000 32.000000
32.000000 32.000000 32.000000 32.000000 32.000000 32.000000 32.000000 32.000000
32.000000 32.000000 32.000000 32.000000 32.000000 32.000000 32.000000 32.000000
32.000000 32.000000 32.000000 32.000000 32.000000 32.000000 32.000000 32.000000
32.000000 32.000000 32.000000 32.000000 32.000000 32.000000 32.000000 32.000000
32.000000 32.000000 32.000000 32.000000 32.000000 32.000000 32.000000 32.000000
32.000000 32.000000 32.000000 32.000000 32.000000 32.000000 32.000000 32.000000
32.000000 32.000000 32.000000 32.000000 32.000000 32.000000 32.000000 32.000000
32.000000 32.000000 32.000000 32.000000 32.000000 32.000000 32.000000 32.000000
32.000000 32.000000 32.000000 32.000000 32.000000 32.000000 32.000000 32.000000
32.000000 32.000000 32.000000 32.000000 32.000000
32.377778 32.381985 32.386221 32.390521 32.394910 32.399426 32.404088 32.408939
32.413992 32.419293 32.424849 32.430710 32.436875 32.443398 32.450271 32.457550
32.465219 32.473337 32.481881 32.490912 32.500397 32.510398 32.520878 32.531898
32.543411 32.555480 32.568051 32.581186 32.594823 32.609024 32.623719 32.638969
32.654697 32.670963 32.687683 32.704915 32.722568 32.740699 32.759212 32.778161
32.797443 32.817112 32.837060 32.857338 32.877835 32.898601 32.919520 32.940639
32.961843 32.983176 33.004521 33.025921 33.047258 33.068574 33.089753 33.110835
33.131705 33.152403 33.172816 33.192983 33.212796 33.232292 33.251368 33.270059
33.288269 33.306033 33.323258 33.339979 33.356111 33.371687 33.386628 33.400967
33.414632 33.427653 33.439967 33.451601 33.462499 33.472688 33.482117 33.490811
33.498729 33.505889 33.512259 33.517854 33.522649 33.526657 33.529857 33.532261
33.533854 33.534644 33.534624 33.533796 33.532163 33.529720 33.526479 33.522431
33.517595 33.511957 33.505544 33.498339 33.490377 33.481635 33.472157 33.461918
33.450968 33.439280 33.426911 33.413833 33.400108 33.385708 33.370703 33.355060
33.338860 33.322068 33.304770 33.286931 33.268643 33.249871 33.230713 33.211132
33.191232 33.170976 33.150472 33.129681 33.108716 33.087538 33.066261 33.044846
33.023408 33.001908 32.980462 32.959027 32.937722 32.916501 32.895482 32.874618
32.854023 32.833650 32.813609 32.793851 32.774482 32.755452 32.736862 32.718659
32.700939 32.683648 32.666876 32.650566 32.634803 32.619527 32.604816 32.590611
32.576981 32.563866 32.551328 32.539307 32.527857 32.516916 32.506533 32.496645
32.487293 32.478416 32.470045 32.462121 32.454669 32.447630 32.441022 32.434787
32.428936 32.423415 32.418227 32.413320 32.408691 32.404291 32.400111 32.396105
32.392258 32.388528 32.384895 32.381320 32.377778
32.755556 32.763991 32.772491 32.781109 32.789919 32.798963 32.808326 32.818036
32.828186 32.838792 32.849954 32.861677 32.874064 32.887107 32.900915 32.915466
32.930875 32.947101 32.964266 32.982314 33.001367 33.021356 33.042405 33.064428
33.087551 33.111672 33.136916 33.163168 33.190550 33.218932 33.248437 33.278917
33.310494 33.343005 33.376570 33.411013 33.446450 33.482692 33.519851 33.557728
33.596430 33.635748 33.675784 33.716321 33.757458 33.798969 33.840950 33.883170
33.925720 33.968367 34.011199 34.053979 34.096794 34.139407 34.181902 34.224046
34.265920 34.307295 34.348250 34.388564 34.428312 34.467283 34.505551 34.542913
34.579442 34.614948 34.649500 34.682921 34.715279 34.746409 34.776377 34.805034
34.832441 34.858463 34.883158 34.906408 34.928264 34.948624 34.967535 34.984907
35.000784 35.015091 35.027865 35.039045 35.048660 35.056667 35.063086 35.067887
35.071083 35.072660 35.072621 35.070966 35.067692 35.062811 35.056313 35.048225
35.038526 35.027262 35.014402 35.000006 34.984037 34.966571 34.947563 34.927103
34.905143 34.881787 34.856980 34.830843 34.803317 34.774537 34.744441 34.713178
34.680683 34.647121 34.612422 34.576766 34.540081 34.502558 34.464125 34.424985
34.385062 34.344570 34.303433 34.261872 34.219809 34.177472 34.134782 34.091970
34.048956 34.005974 33.962940 33.920090 33.877336 33.834915 33.792733 33.751024
33.709693 33.668966 33.628744 33.589247 33.550373 33.512333 33.475019 33.438633
33.403065 33.368503 33.334834 33.302234 33.270587 33.240056 33.210520 33.182129
33.154761 33.128550 33.103372 33.079348 33.056351 33.034487 33.013631 32.993871
32.975083 32.957342 32.940523 32.924687 32.909712 32.895643 32.882362 32.869898
32.858139 32.847099 32.836671 32.826856 32.817553 32.808748 32.800348 32.792328
32.784599 32.777127 32.769831 32.762664 32.755556
33.133333 33.146047 33.158849 33.171844 33.185105 33.198749 33.212832 33.227484
33.242742 33.258749 33.275521 33.293212 33.311817 33.331500 33.352234 33.374190
33.397321 33.421802 33.447565 33.474790 33.503385 33.533534 33.565122 33.598335
33.633033 33.669404 33.707285 33.746864 33.787954 33.830741 33.875015 33.920960
33.968344 34.017347 34.067716 34.119626 34.172805 34.227423 34.283188 34.340264
34.398346 34.457590 34.517675 34.578753 34.640490 34.703032 34.766036 34.829642
34.893502 34.957747 35.022027 35.086470 35.150724 35.214911 35.278684 35.342161
35.404998 35.467312 35.528769 35.589480 35.649123 35.707809 35.765226 35.821485
35.876291 35.929750 35.981586 36.031902 36.080443 36.127307 36.172260 36.215397
36.256504 36.295673 36.332711 36.367704 36.400482 36.431123 36.459482 36.485626
36.509434 36.530965 36.550117 36.566941 36.581359 36.593407 36.603031 36.610256
36.615048 36.617421 36.617362 36.614873 36.609963 36.602620 36.592876 36.580706
36.566164 36.549213 36.529931 36.508268 36.484323 36.458037 36.429534 36.398742
36.365808 36.330655 36.293450 36.254109 36.212823 36.169501 36.124356 36.077293
36.028547 35.978019 35.925963 35.872278 35.817238 35.760739 35.703074 35.644134
35.584230 35.523251 35.461522 35.398929 35.335807 35.272041 35.207976 35.143491
35.078937 35.014192 34.949608 34.885058 34.820895 34.756986 34.693681 34.630843
34.568814 34.507451 34.447088 34.387575 34.329236 34.271914 34.215917 34.161085
34.107708 34.055620 34.005096 33.955961 33.908472 33.862450 33.818130 33.775330
33.734263 33.694744 33.656965 33.620738 33.586231 33.553257 33.521961 33.492155
33.463961 33.437195 33.411955 33.388058 33.365581 33.344346 33.324407 33.305592
33.287934 33.271266 33.255600 33.240780 33.226796 33.213502 33.200869 33.188759
33.177128 33.165850 33.154860 33.144048 33.133333
33.511111 33.528168 33.545355 33.562778 33.580588 33.598868 33.617786 33.637404
33.657904 33.679321 33.701855 33.725513 33.750507 33.776818 33.804668 33.834008
33.865070 33.897777 33.932368 33.968733 34.007118 34.047384 34.089779 34.134132
34.180694 34.229263 34.280088 34.332938 34.388061 34.445194 34.504582 34.565931
34.629483 34.694916 34.762465 34.831780 34.903091 34.976022 35.050795 35.127012
35.204885 35.283995 35.364549 35.446109 35.528872 35.612387 35.696843 35.781778
35.867374 35.953162 36.039316 36.125365 36.211476 36.297181 36.382641 36.467393
36.551593 36.634787 36.717129 36.798178 36.878083 36.956421 37.033338 37.108430
37.181840 37.253188 37.322613 37.389760 37.454764 37.517298 37.577492 37.635047
37.690086 37.742340 37.791926 37.838604 37.882483 37.923353 37.961313 37.996182
38.028048 38.056761 38.082394 38.104830 38.124125 38.140191 38.153071 38.162704
38.169118 38.172282 38.172204 38.168884 38.162314 38.152523 38.139484 38.123255
38.103795 38.081191 38.055384 38.026494 37.994446 37.959389 37.921235 37.880165
37.836079 37.789186 37.739378 37.686894 37.631617 37.573816 37.513367 37.450568
37.385290 37.317860 37.248142 37.176492 37.102771 37.027358 36.950112 36.871435
36.791182 36.709777 36.627071 36.543505 36.458926 36.373789 36.287938 36.201837
36.115325 36.028873 35.942315 35.856121 35.770120 35.684782 35.599925 35.516015
35.432863 35.350923 35.269999 35.190531 35.112314 35.035771 34.960690 34.887473
34.815899 34.746348 34.678591 34.612984 34.549292 34.487842 34.428393 34.371245
34.316153 34.263386 34.212696 34.164323 34.118016 34.073984 34.031977 33.992173
33.954323 33.918573 33.884679 33.852757 33.822566 33.794194 33.767404 33.742257
33.718525 33.696237 33.675179 33.655352 33.636551 33.618753 33.601767 33.585543
33.569906 33.554782 33.540013 33.525503 33.511111
33.888889 33.910388 33.932035 33.954006 33.976422 33.999481 34.023274 34.048022
34.073785 34.100804 34.129105 34.158945 34.190319 34.223498 34.258440 34.295431
34.334391 34.375615 34.418988 34.464812 34.512934 34.563661 34.616801 34.672666
34.731023 34.792186 34.855882 34.922425 34.991504 35.063428 35.137849 35.215072
35.294711 35.377064 35.461711 35.548941 35.638303 35.730075 35.823775 35.919673
36.017259 36.116791 36.217735 36.320340 36.424052 36.529109 36.634941 36.741776
36.849034 36.956932 37.064885 37.173103 37.280998 37.388773 37.495845 37.602410
37.707896 37.812493 37.915641 38.017529 38.117615 38.216082 38.312414 38.406790
38.498719 38.588378 38.675306 38.759674 38.841056 38.919618 38.994967 39.067263
39.136151 39.201781 39.263835 39.322455 39.377360 39.428680 39.476173 39.519954
39.559818 39.595866 39.627932 39.656096 39.680231 39.700399 39.716508 39.728601
39.736623 39.740595 39.740498 39.736332 39.728114 39.715824 39.699516 39.679145
39.654804 39.626429 39.594148 39.557878 39.517786 39.473771 39.426036 39.374466
39.319302 39.260414 39.198083 39.132166 39.062981 38.990377 38.914708 38.835816
38.754092 38.669370 38.582076 38.492041 38.399722 38.304946 38.208202 38.109311
38.008790 37.906458 37.802854 37.697792 37.591833 37.484786 37.377226 37.268956
37.160562 37.051840 36.943382 36.834976 36.727212 36.619873 36.513541 36.407990
36.303793 36.200713 36.099307 35.999328 35.901314 35.805008 35.710924 35.618794
35.529106 35.441580 35.356676 35.274106 35.194294 35.116945 35.042451 34.970507
34.901471 34.835032 34.771509 34.710591 34.652557 34.597094 34.544445 34.494295
34.446848 34.401794 34.359299 34.319056 34.281193 34.245413 34.211805 34.180080
34.150294 34.122168 34.095722 34.070693 34.047065 34.024593 34.003228 33.982742
33.963056 33.943962 33.925352 33.907039 33.888889
34.266667 34.292716 34.318960 34.345562 34.372747 34.400643 34.429503 34.459419
34.490667 34.523302 34.557623 34.593642 34.631680 34.671706 34.714057 34.758661
34.805867 34.855558 34.908094 34.963315 35.021587 35.082702 35.147034 35.214328
35.284960 35.358627 35.435705 35.515846 35.599423 35.686040 35.776066 35.869061
35.965385 36.064557 36.166926 36.271970 36.380030 36.490543 36.603838 36.719318
36.837300 36.957156 37.079188 37.202744 37.328112 37.454617 37.582536 37.711179
37.840810 37.970727 38.101186 38.231481 38.361856 38.491608 38.620974 38.749259
38.876693 39.002595 39.127190 39.249816 39.370694 39.489189 39.605516 39.719070
39.830063 39.937925 40.042863 40.144345 40.242572 40.337053 40.427983 40.514915
40.598034 40.676938 40.751800 40.822265 40.888493 40.950174 41.007454 41.060066
41.108140 41.151455 41.190119 41.223958 41.253058 41.277288 41.296710 41.311238
41.320910 41.325681 41.325565 41.320561 41.310655 41.295891 41.276230 41.251757
41.222410 41.188319 41.149396 41.105815 41.057469 41.004575 40.947006 40.885025
40.818487 40.747701 40.672506 40.593259 40.509783 40.422482 40.331168 40.236291
40.137654 40.035748 39.930372 39.822058 39.710598 39.596563 39.479741 39.360739
39.239339 39.116179 38.991038 38.864579 38.736577 38.607714 38.477762 38.347417
38.216442 38.085544 37.954478 37.823953 37.693714 37.564468 37.435948 37.308852
37.182902 37.058778 36.936191 36.815800 36.697305 36.581336 36.467581 36.356641
36.248189 36.142794 36.040117 35.940687 35.844156 35.751013 35.660900 35.574264
35.490739 35.410728 35.333859 35.260491 35.190248 35.123443 35.059700 34.999285
34.941825 34.887538 34.836056 34.787552 34.741665 34.698524 34.657776 34.619507
34.583377 34.549429 34.517337 34.487104 34.458423 34.431254 34.405313 34.380521
34.356617 34.333488 34.310895 34.288691 34.266667
34.644444 34.675189 34.706143 34.737554 34.769593 34.802539 34.836522 34.871853
34.908617 34.947152 34.987499 35.030018 35.074704 35.121937 35.171661 35.224276
35.279674 35.338268 35.399899 35.464991 35.533331 35.605350 35.680780 35.760057
35.842860 35.929624 36.019973 36.114343 36.212301 36.314277 36.419788 36.529256
36.642145 36.758867 36.878838 37.002457 37.129094 37.259136 37.391906 37.527780
37.666041 37.807050 37.950056 38.095404 38.242316 38.391120 38.541017 38.692320
38.844215 38.997002 39.149859 39.303072 39.455818 39.608375 39.759925 39.910736
40.060005 40.207993 40.353917 40.498032 40.639582 40.778818 40.915016 41.048422
41.178352 41.305047 41.427866 41.547043 41.661985 41.772920 41.879303 41.981354
42.078579 42.171187 42.258738 42.341428 42.418867 42.491236 42.558201 42.619921
42.676115 42.726922 42.772112 42.811800 42.845808 42.874223 42.896920 42.913957
42.925258 42.930854 42.930719 42.924852 42.913278 42.895966 42.872991 42.844293
42.809998 42.770016 42.724525 42.673409 42.616897 42.554849 42.487546 42.414828
42.337027 42.253964 42.166026 42.073016 41.975375 41.872894 41.766065 41.654668
41.539248 41.419576 41.296246 41.169024 41.038549 40.904582 40.767808 40.627980
40.485822 40.341084 40.194524 40.045885 39.895954 39.744469 39.592236 39.438987
39.285542 39.131624 38.978061 38.824565 38.671962 38.519954 38.369359 38.219865
38.072275 37.926264 37.782613 37.640981 37.502122 37.365680 37.232375 37.101836
36.974745 36.850716 36.730391 36.613367 36.500242 36.390602 36.284995 36.182997
36.085105 35.990889 35.900791 35.814377 35.732036 35.653331 35.578598 35.507399
35.440016 35.376016 35.315627 35.258421 35.204575 35.153670 35.105831 35.060653
35.018209 34.978112 34.940384 34.904657 34.870907 34.838789 34.808233 34.778917
34.750731 34.723380 34.696712 34.670464 34.644444
35.022222 35.057812 35.093664 35.129998 35.167116 35.205193 35.244566 35.285361
35.327949 35.372405 35.419128 35.468142 35.519869 35.574278 35.631815 35.692388
35.756463 35.823888 35.895144 35.970019 36.049002 36.131820 36.218969 36.310115
36.405755 36.505492 36.609823 36.718288 36.831382 36.948580 37.070372 37.196172
37.326459 37.460592 37.599033 37.741088 37.887204 38.036635 38.189813 38.345943
38.505440 38.667467 38.832421 38.999431 39.168873 39.339848 39.512716 39.686554
39.861708 40.037240 40.213481 40.389488 40.565579 40.740814 40.915500 41.088709
41.260739 41.430681 41.598826 41.764293 41.927367 42.087203 42.244079 42.397192
42.546817 42.692197 42.833601 42.970324 43.102630 43.229868 43.352293 43.469315
43.581177 43.687347 43.788056 43.882834 43.971895 44.054827 44.131827 44.202543
44.267147 44.325350 44.377297 44.422756 44.461844 44.494389 44.520474 44.539986
44.552975 44.559383 44.559229 44.552511 44.539211 44.519386 44.492984 44.460117
44.420701 44.374906 44.322616 44.264061 44.199093 44.128004 44.050619 43.967288
43.877815 43.782611 43.681459 43.574831 43.462494 43.344981 43.222046 43.094281
42.961429 42.824141 42.682154 42.536172 42.385925 42.232172 42.074636 41.914124
41.750355 41.584177 41.415304 41.244620 41.071833 40.897855 40.722388 40.546363
40.369474 40.192663 40.015614 39.839273 39.663310 39.488668 39.315002 39.143241
38.973024 38.805259 38.639568 38.476831 38.316652 38.159875 38.006087 37.856091
37.709456 37.566939 37.428092 37.293622 37.163065 37.037075 36.915174 36.797959
36.684942 36.576660 36.472618 36.373292 36.278182 36.187702 36.101352 36.019483
35.941597 35.867984 35.798152 35.732330 35.670033 35.611433 35.556057 35.504016
35.454857 35.408634 35.364911 35.323689 35.284556 35.247459 35.212014 35.178116
35.145413 35.113751 35.082812 35.052396 35.022222
35.400000 35.440626 35.481524 35.523016 35.565324 35.608810 35.653646 35.700231
35.748682 35.799433 35.852540 35.908470 35.967218 36.029277 36.094577 36.163633
36.236312 36.313146 36.393934 36.479220 36.568735 36.663034 36.761777 36.865524
36.973864 37.087357 37.205523 37.328918 37.456993 37.590297 37.728209 37.871272
38.018796 38.171310 38.328062 38.489562 38.655000 38.824867 38.998295 39.175758
39.356337 39.540485 39.727238 39.917029 40.108857 40.303133 40.498830 40.696339
40.894610 41.094018 41.293504 41.493424 41.692719 41.891733 42.089412 42.286091
42.480735 42.673669 42.863884 43.051698 43.236140 43.417522 43.594915 43.768627
43.937781 44.102678 44.262497 44.417536 44.567033 44.711279 44.849576 44.982205
45.108536 45.228836 45.342544 45.449909 45.550440 45.644367 45.731264 45.811338
45.884233 45.950127 46.008730 46.060189 46.104280 46.141116 46.170537 46.192621
46.207270 46.214525 46.214352 46.206751 46.191752 46.169317 46.139540 46.102342
46.057883 46.006047 45.947059 45.880769 45.807468 45.726973 45.639643 45.545269
45.444276 45.336431 45.222227 45.101412 44.974548 44.841366 44.702496 44.557658
44.407547 44.251874 44.091398 43.925824 43.755972 43.581540 43.403406 43.221263
43.036040 42.847426 42.656393 42.462625 42.267131 42.069586 41.871029 41.671127
41.470935 41.270110 41.069716 40.869398 40.670219 40.471806 40.275214 40.080052
39.887356 39.696715 39.509136 39.324191 39.142848 38.964657 38.790547 38.620045
38.454030 38.292010 38.134808 37.981916 37.834095 37.690821 37.552794 37.419473
37.291495 37.168308 37.050479 36.937451 36.829720 36.726726 36.628897 36.535670
36.447406 36.363545 36.284377 36.209354 36.138696 36.071866 36.009020 35.949635
35.893803 35.841021 35.791318 35.744218 35.699686 35.657274 35.616892 35.578123
35.540819 35.504603 35.469272 35.434488 35.400000
35.777778 35.823628 35.869811 35.916604 35.964387 36.013385 36.064021 36.116458
36.171162 36.228231 36.288168 36.351005 36.417275 36.486941 36.560564 36.638034
36.719934 36.806081 36.897075 36.992657 37.093439 37.199084 37.310213 37.426411
37.548301 37.675389 37.808297 37.946452 38.090470 38.239703 38.394753 38.554897
38.720726 38.891441 39.067616 39.248383 39.434296 39.624423 39.819294 40.017918
40.220803 40.426903 40.636703 40.849112 41.064590 41.282010 41.501809 41.722832
41.945495 42.168626 42.392621 42.616302 42.840048 43.062685 43.284579 43.504569
43.723012 43.938772 44.152199 44.362190 44.569090 44.771841 44.970782 45.164910
45.354559 45.538785 45.717918 45.891080 46.058594 46.219654 46.374573 46.522618
46.664092 46.798336 46.925637 47.045414 47.157934 47.262690 47.359927 47.449214
47.530765 47.604225 47.669775 47.727132 47.776443 47.817497 47.850398 47.875008
47.891391 47.899476 47.899284 47.890815 47.874046 47.849047 47.815751 47.774297
47.724577 47.666803 47.600825 47.526927 47.444925 47.355173 47.257456 47.152204
47.039170 46.918862 46.791010 46.656195 46.514130 46.365471 46.209917 46.048200
45.880004 45.706138 45.526276 45.341298 45.150874 44.955947 44.756183 44.552587
44.344820 44.133941 43.919606 43.702919 43.483531 43.262580 43.039711 42.816088
42.591345 42.366661 42.141657 41.917517 41.693845 41.471820 41.251026 41.032626
40.816183 40.602833 40.392117 40.185133 39.981401 39.781974 39.586346 39.395519
39.208965 39.027628 38.850955 38.679827 38.513671 38.353301 38.198126 38.048887
37.904978 37.767067 37.634538 37.507980 37.386773 37.271427 37.161319 37.056884
36.957499 36.863521 36.774335 36.690223 36.610578 36.535608 36.464723 36.398057
36.335040 36.275734 36.219595 36.166617 36.116284 36.068525 36.022856 35.979144
35.936943 35.896058 35.856088 35.816780 35.777778
36.155556 36.206865 36.258513 36.310895 36.364288 36.419140 36.475664 36.534354
36.595357 36.659206 36.725978 36.796244 36.870005 36.947864 37.029745 37.116278
37.207306 37.303481 37.404563 37.511219 37.623126 37.740961 37.864317 37.993875
38.129140 38.270795 38.418259 38.572210 38.731978 38.898234 39.070224 39.248603
39.432536 39.622659 39.818058 40.019349 40.225542 40.437229 40.653352 40.874476
41.099481 41.328904 41.561570 41.797991 42.036945 42.278916 42.522647 42.768599
43.015486 43.263749 43.512088 43.760923 44.008955 44.256584 44.502522 44.747158
44.989226 45.229104 45.465560 45.698965 45.928133 46.153428 46.373720 46.589370
46.799310 47.003896 47.202132 47.394370 47.579687 47.758430 47.929757 48.094003
48.250408 48.399295 48.539987 48.672788 48.797106 48.913221 49.020623 49.119566
49.209620 49.291006 49.363375 49.426911 49.481343 49.526812 49.563126 49.590381
49.608462 49.617417 49.617207 49.607831 49.589326 49.561644 49.524897 49.478989
49.424110 49.360117 49.287279 49.205412 49.114863 49.015410 48.907481 48.790821
48.665940 48.532555 48.391258 48.241744 48.084690 47.919770 47.747746 47.568280
47.382214 47.189202 46.990167 46.784753 46.573962 46.357433 46.136237 45.910013
45.679892 45.445511 45.208056 44.967159 44.724053 44.478361 44.231351 43.982637
43.733511 43.483573 43.234126 42.984753 42.736758 42.489704 42.244882 42.001832
41.761821 41.524365 41.290695 41.060302 40.834370 40.612363 40.395414 40.182959
39.976068 39.774153 39.578214 39.387639 39.203357 39.024733 38.852618 38.686358
38.526724 38.373047 38.226015 38.084949 37.950451 37.821838 37.699626 37.583130
37.472782 37.367901 37.268834 37.174909 37.086391 37.002622 36.923784 36.849240
36.779093 36.712729 36.650175 36.590847 36.534697 36.481176 36.430165 36.381153
36.333955 36.288102 36.243346 36.199268 36.155556
36.533333 36.590327 36.647724 36.705865 36.765212 36.826037 36.888855 36.953869
37.021640 37.092294 37.166438 37.244116 37.325973 37.411971 37.502785 37.598293
37.699193 37.805276 37.917262 38.034847 38.158767 38.288625 38.425166 38.567898
38.717569 38.873593 39.036712 39.206248 39.382933 39.565997 39.756159 39.952554
40.155884 40.365196 40.581170 40.802769 41.030644 41.263681 41.502504 41.745923
41.994534 42.247083 42.504133 42.764376 43.028343 43.294682 43.563895 43.834595
44.107258 44.380475 44.654700 44.928512 45.202347 45.474790 45.746258 46.015356
46.282490 46.546294 46.807167 47.063786 47.316544 47.564176 47.807068 48.044022
48.275422 48.500142 48.718566 48.929646 49.133761 49.329953 49.518589 49.698801
49.870947 50.034247 50.189044 50.334651 50.471387 50.598657 50.716753 50.825168
50.924162 51.013317 51.092853 51.162439 51.222251 51.272042 51.311941 51.341784
51.361650 51.371455 51.371227 51.360964 51.340638 51.310331 51.269962 51.219693
51.159395 51.089312 51.009266 50.919588 50.820056 50.711085 50.592416 50.464554
50.327204 50.180962 50.025507 49.861524 49.688671 49.507725 49.318329 49.121350
48.916420 48.704496 48.485200 48.259579 48.027250 47.789339 47.545461 47.296817
47.043020 46.785337 46.523376 46.258460 45.990194 45.719945 45.447309 45.173684
44.898655 44.623641 44.348208 44.073783 43.799912 43.528013 43.257609 42.990098
42.724978 42.463611 42.205467 41.951865 41.702243 41.457868 41.218146 40.984278
40.755644 40.533373 40.316814 40.107019 39.903312 39.706661 39.516368 39.333314
39.156781 38.987561 38.824919 38.669558 38.520734 38.379053 38.243770 38.115397
37.993190 37.877569 37.767795 37.664198 37.566051 37.473594 37.386118 37.303777
37.225883 37.152505 37.082987 37.017314 36.954863 36.895542 36.838769 36.784374
36.731821 36.680868 36.631029 36.581995 36.533333
36.911111 36.974063 37.037421 37.101659 37.167113 37.234316 37.303528 37.375338
37.449927 37.527931 37.609448 37.695157 37.785068 37.879897 37.979563 38.084813
38.195471 38.312307 38.435050 38.564487 38.700247 38.843130 38.992661 39.149647
39.313511 39.485058 39.663608 39.849959 40.043329 40.244503 40.452598 40.668381
40.890870 41.120809 41.357122 41.600525 41.849852 42.105790 42.367088 42.634401
42.906403 43.183712 43.464939 43.750667 44.039450 44.331838 44.626341 44.923478
45.221729 45.521585 45.821508 46.121965 46.421416 46.720309 47.017117 47.312271
47.604273 47.893543 48.178625 48.459933 48.736064 49.007429 49.272692 49.532264
49.784885 50.030962 50.269323 50.500374 50.723032 50.937697 51.143386 51.340488
51.528119 51.706655 51.875310 52.034442 52.183363 52.322406 52.450981 52.569388
52.677133 52.774478 52.861023 52.936984 53.002054 53.056398 53.099798 53.132367
53.153975 53.164677 53.164431 53.153235 53.131131 53.098061 53.054153 52.999294
52.933700 52.857202 52.770107 52.672197 52.563870 52.444864 52.315670 52.175987
52.026403 51.866585 51.697218 51.517945 51.329549 51.131654 50.925143 50.709625
50.486086 50.254123 50.014818 49.767766 49.514140 49.253532 48.987202 48.714740
48.437485 48.155025 47.868766 47.578292 47.285065 46.988664 46.690593 46.390420
46.089677 45.787918 45.486689 45.185524 44.885968 44.587531 44.291743 43.998086
43.708058 43.421114 43.138707 42.860258 42.587168 42.318822 42.056557 41.799723
41.549583 41.305455 41.068519 40.838062 40.615177 40.399124 40.190901 39.989744
39.796557 39.610555 39.432543 39.261723 39.098799 38.942964 38.794821 38.653562
38.519687 38.392393 38.272080 38.157954 38.050318 37.948393 37.852387 37.761542
37.675972 37.594949 37.518497 37.445919 37.377154 37.311546 37.248947 37.188750
37.130727 37.074321 37.019229 36.964950 36.911111
37.288889 37.358057 37.427703 37.498233 37.570191 37.643905 37.719981 37.798665
37.880617 37.965994 38.055508 38.149222 38.247890 38.351481 38.460784 38.575666
38.696948 38.824394 38.958845 39.099959 39.248593 39.404299 39.567940 39.738957
39.918217 40.105049 40.300314 40.503231 40.714650 40.933679 41.161149 41.396062
41.639225 41.889534 42.147769 42.412725 42.685150 42.963744 43.249219 43.540190
43.837329 44.139176 44.446363 44.757362 45.072769 45.391001 45.712618 46.035995
46.361659 46.687959 47.015394 47.342302 47.669157 47.994305 48.318199 48.639207
48.957770 49.272295 49.583214 49.888986 50.190040 50.484902 50.774000 51.055939
51.331147 51.598319 51.857882 52.108629 52.350986 52.583848 52.807635 53.021349
53.225400 53.418896 53.602233 53.774626 53.936446 54.087016 54.226676 54.354853
54.471850 54.577195 54.671145 54.753327 54.823949 54.882732 54.929829 54.965055
54.988503 55.000079 54.999815 54.987709 54.963730 54.927967 54.880327 54.820991
54.749806 54.667048 54.572508 54.466558 54.348937 54.220117 54.079792 53.928535
53.766003 53.592873 53.408772 53.214483 53.009610 52.795044 52.570373 52.336596
52.093290 51.841562 51.580983 51.312763 51.036474 50.753420 50.463175 50.167134
49.864869 49.557858 49.245671 48.929852 48.609969 48.287620 47.962365 47.635842
47.307596 46.979288 46.650447 46.322740 45.995671 45.670899 45.347899 45.028305
44.711558 44.399254 44.090798 43.787731 43.489422 43.197346 42.910834 42.631283
42.357988 42.092262 41.833361 41.582508 41.338925 41.103736 40.876135 40.657144
40.445930 40.243411 40.048735 39.862711 39.684475 39.514726 39.352594 39.198669
39.052081 38.913311 38.781496 38.657011 38.539006 38.427750 38.322415 38.223166
38.129203 38.040593 37.956567 37.877098 37.801455 37.729521 37.660612 37.594520
37.530614 37.468604 37.407916 37.348181 37.288889
37.666667 37.742361 37.818534 37.895739 37.974373 38.055059 38.138109 38.224206
38.313571 38.406944 38.504450 38.606876 38.714247 38.827393 38.946232 39.071630
39.203395 39.342420 39.488403 39.642255 39.803559 39.973238 40.150758 40.337048
40.531453 40.734901 40.946617 41.167518 41.396713 41.635099 41.881668 42.137294
42.400855 42.673195 42.953080 43.241321 43.536578 43.839624 44.149022 44.465501
44.787537 45.115816 45.448734 45.786936 46.128750 46.474779 46.823301 47.174879
47.527754 47.882456 48.237204 48.592499 48.946559 49.299861 49.650637 49.999348
50.344261 50.685824 51.022355 51.354297 51.680034 52.000008 52.312683 52.618504
52.916027 53.205699 53.486179 53.757915 54.019675 54.271907 54.513491 54.744870
54.965040 55.174431 55.372156 55.558625 55.733066 55.895861 56.046351 56.184883
56.310905 56.424722 56.525888 56.614656 56.690683 56.754164 56.804857 56.842894
56.868130 56.880632 56.880351 56.867285 56.841482 56.802872 56.751600 56.687529
56.610902 56.521520 56.419725 56.305262 56.178574 56.039355 55.888156 55.724627
55.549426 55.362169 55.163628 54.953390 54.732341 54.500051 54.257522 54.004311
53.741537 53.468750 53.187185 52.896391 52.597711 52.290696 51.976793 51.655557
51.328525 50.995255 50.657368 50.314418 49.968094 49.617947 49.265715 48.910938
48.555391 48.198597 47.842345 47.486137 47.131760 46.778688 46.428688 46.081200
45.737957 45.398359 45.064088 44.734504 44.411224 44.093563 43.783063 43.478998
43.182818 42.893758 42.613173 42.340257 42.076262 41.820348 41.573658 41.335322
41.106370 40.885906 40.674847 40.472278 40.278999 40.094083 39.918214 39.750460
39.591388 39.440068 39.296954 39.161124 39.032919 38.911435 38.796902 38.688441
38.586172 38.489251 38.397693 38.310692 38.228163 38.149345 38.074058 38.001593
37.931678 37.863663 37.797189 37.731670 37.666667
38.044444 38.126953 38.210018 38.294113 38.379869 38.467672 38.558224 38.651815
38.749209 38.850597 38.956800 39.067902 39.184772 39.307385 39.436649 39.572428
39.715660 39.866091 40.024686 40.191067 40.366215 40.549631 40.742302 40.943603
41.154523 41.374307 41.603937 41.842533 42.091058 42.348506 42.615817 42.891861
43.177547 43.471625 43.774969 44.086210 44.406181 44.733406 45.068672 45.410401
45.759333 46.113799 46.474493 46.839665 47.209962 47.583570 47.961090 48.340661
48.722844 49.105744 49.489888 49.873370 50.256686 50.637939 51.017602 51.393805
51.767009 52.135386 52.499393 52.857264 53.209455 53.554283 53.892203 54.221629
54.543021 54.854898 55.157727 55.450141 55.732612 56.003892 56.264452 56.513171
56.750510 56.975474 57.188509 57.388743 57.576601 57.751331 57.913324 58.061947