<?xml version="1.0"?>
<VTKFile type="ImageData" version="0.1" byte_order="LittleEndian">
  <ImageData WholeExtent="0 180 0 180 0 0" Origin="0.0 0.0 0.0" Spacing="0.05 0.05 1">
    <Piece Extent="0 180 0 180 0 0">
      <PointData Scalars="Temperature">
        <DataArray type="Float32" Name="Temperature" format="ascii">
32.000000 32.000000 32.000000 32.000000 32.000000 32.000000 32.000000 32.000000 32.000000 32.000000 32.000000 32.000000 32.000000 32.000000 32.000000 32.000000 32.000000 32.000000 32.000000 32.000000 32.000000 32.000000 32.000000 32.000000 32.000000 32.000000 32.000000 32.000000 32.000000 32.000000 32.000000 32.000000 32.000000 32.000000 32.000000 32.000000 32.000000 32.000000 32.000000 32.000000 32.000000 32.000000 32.000000 32.000000 32.000000 32.000000 32.000000 32.000000 32.000000 32.000000 32.000000 32.000000 32.000000 32.000000 32.000000 32.000000 32.000000 32.000000 32.000000 32.000000 32.000000 32.000000 32.000000 32.000000 32.000000 32.000000 32.000000 32.000000 32.000000 32.000000 32.000000 32.000000 32.000000 32.000000 32.000000 32.000000 32.000000 32.000000 32.000000 32.000000 32.000000 32.000000 32.000000 32.000000 32.000000 32.000000 32.000000 32.000000 32.000000 32.000000 32.000000 32.000000 32.000000 32.000000 32.000000 32.000000 32.000000 32.000000 32.000000 32.000000 32.000000 32.000000 32.000000 32.000000 32.000000 32.000000 32.000000 32.000000 32.000000 32.000000 32.000000 32.000000 32.000000 32.000000 32.000000 32.000000 32.000000 32.000000 32.000000 32.000000 32.000000 32.000000 32.000000 32.000000 32.000000 32.000000 32.000000 32.000000 32.000000 32.000000 32.000000 32.000000 32.000000 32.000000 32.000000 32.000000 32.000000 32.000000 32.000000 32.000000 32.000000 32.000000 32.000000 32.000000 32.000000 32.000000 32.000000 32.000000 32.000000 32.000000 32.000000 32.000000 32.000000 32.000000 32.000000 32.000000 32.000000 32.000000 32.000000 32.000000 32.000000 32.000000 32.000000 32.000000 32.000000 32.000000 32.000000 32.000000 32.000000 32.000000 32.000000 32.000000 32.000000 32.000000 32.000000 32.000000 32.000000 32.000000 32.000000 32.000000 32.000000
32.377778 32.366374 32.355002 32.343694 32.332477 32.321390 32.310453 32.299708 32.289171 32.278886 32.268864 32.259150 32.249752 32.240715 32.232040 32.223777 32.215917 32.208513 32.201550 32.195083 32.189086 32.183619 32.178648 32.174233 32.170333 32.167009 32.164212 32.162006 32.160330 32.159253 32.158703 32.158753 32.159320 32.160479 32.162138 32.164376 32.167090 32.170362 32.174078 32.178326 32.182981 32.188133 32.193650 32.199623 32.205915 32.212618 32.219586 32.226916 32.234457 32.242307 32.250309 32.258564 32.266914 32.275459 32.284039 32.292757 32.301454 32.310231 32.318930 32.327656 32.336251 32.344820 32.353210 32.361525 32.369619 32.377591 32.385305 32.392857 32.400117 32.407180 32.413926 32.420442 32.426620 32.432542 32.438110 32.443399 32.448323 32.452951 32.457206 32.461149 32.464716 32.467958 32.470823 32.473354 32.475509 32.477321 32.478760 32.479848 32.480567 32.480929 32.480927 32.480561 32.479838 32.478747 32.477304 32.475488 32.473328 32.470792 32.467920 32.464671 32.461097 32.457146 32.452882 32.448244 32.443309 32.438006 32.432424 32.426486 32.420290 32.413754 32.406986 32.399899 32.392610 32.385028 32.377281 32.369272 32.361138 32.352779 32.344339 32.335717 32.327064 32.318275 32.309507 32.300655 32.291878 32.283072 32.274397 32.265750 32.257292 32.248920 32.240792 32.232809 32.225127 32.217645 32.210517 32.203645 32.197175 32.191013 32.185298 32.179939 32.175067 32.170594 32.166642 32.163126 32.160159 32.157660 32.155732 32.154296 32.153447 32.153108 32.153363 32.154141 32.155514 32.157414 32.159904 32.162919 32.166512 32.170621 32.175290 32.180459 32.186162 32.192344 32.199030 32.206166 32.213770 32.221791 32.230237 32.239061 32.248265 32.257801 32.267667 32.277817 32.288242 32.298899 32.309773 32.320824 32.332032 32.343359 32.354782 32.366264 32.377778
32.755556 32.732758 32.710025 32.687415 32.664999 32.642826 32.620975 32.599484 32.578437 32.557864 32.537853 32.518421 32.499663 32.481582 32.464278 32.447742 32.432077 32.417258 32.403394 32.390445 32.378525 32.367575 32.357714 32.348867 32.341158 32.334493 32.329002 32.324570 32.321333 32.319157 32.318185 32.318261 32.319533 32.321827 32.325297 32.329746 32.335338 32.341853 32.349462 32.357928 32.367424 32.377698 32.388928 32.400844 32.413632 32.427005 32.441154 32.455782 32.471081 32.486745 32.502973 32.519447 32.536371 32.553423 32.570810 32.588208 32.605824 32.623338 32.640958 32.658367 32.675773 32.692868 32.709857 32.726444 32.742830 32.758732 32.774348 32.789409 32.804106 32.818191 32.831844 32.844837 32.857341 32.869147 32.880415 32.890959 32.900925 32.910148 32.918759 32.926617 32.933835 32.940296 32.946095 32.951137 32.955499 32.959108 32.962020 32.964187 32.965643 32.966363 32.966360 32.965632 32.964169 32.961994 32.959073 32.955455 32.951084 32.946032 32.940221 32.933747 32.926513 32.918639 32.910010 32.900767 32.890778 32.880208 32.868911 32.857073 32.844533 32.831500 32.817802 32.803669 32.788917 32.773795 32.758113 32.742137 32.725670 32.708994 32.691908 32.674706 32.657184 32.639647 32.621890 32.604226 32.586448 32.568875 32.551300 32.534044 32.516902 32.500194 32.483717 32.467786 32.452202 32.437273 32.422804 32.409092 32.395947 32.383654 32.372029 32.361341 32.351411 32.342494 32.334414 32.327410 32.321313 32.316341 32.312333 32.309487 32.307648 32.306994 32.307377 32.308954 32.311585 32.315406 32.320283 32.326332 32.333426 32.341661 32.350917 32.361270 32.372605 32.384983 32.398292 32.412577 32.427731 32.443782 32.460629 32.478284 32.496652 32.515731 32.535429 32.555733 32.576556 32.597872 32.619598 32.641699 32.664098 32.686749 32.709579 32.732537 32.755556
33.133333 33.099163 33.065085 33.031203 32.997596 32.964376 32.931612 32.899424 32.867865 32.837063 32.807054 32.777976 32.749845 32.722806 32.696856 32.672147 32.648655 32.626537 32.605748 32.586452 32.568578 32.552299 32.537516 32.524411 32.512858 32.503047 32.494822 32.488383 32.483543 32.480511 32.479070 32.479439 32.481369 32.485088 32.490318 32.497295 32.505709 32.515809 32.527253 32.540299 32.554578 32.570356 32.587238 32.605499 32.624719 32.645181 32.666445 32.688800 32.711791 32.735712 32.760092 32.785235 32.810659 32.836671 32.862787 32.889315 32.915772 32.942469 32.968927 32.995457 33.021590 33.047636 33.073139 33.098405 33.122998 33.147217 33.170648 33.193583 33.215633 33.237078 33.257558 33.277338 33.296089 33.314062 33.330957 33.347007 33.361946 33.375984 33.388890 33.400849 33.411667 33.421500 33.430188 33.437862 33.444396 33.449888 33.454250 33.457548 33.459729 33.460825 33.460820 33.459712 33.457521 33.454211 33.449836 33.444331 33.437782 33.430093 33.421386 33.411533 33.400694 33.388710 33.375777 33.361708 33.346735 33.330646 33.313708 33.295687 33.276882 33.257042 33.236496 33.214977 33.192845 33.169819 33.146287 33.121958 33.097243 33.071844 33.046195 33.019990 32.993682 32.966962 32.940297 32.913376 32.886675 32.859884 32.833485 32.807169 32.781417 32.755924 32.731168 32.706847 32.683431 32.660622 32.638878 32.617909 32.598153 32.579328 32.561853 32.545453 32.530524 32.516800 32.504650 32.493818 32.484645 32.476885 32.470848 32.466300 32.463521 32.462284 32.462841 32.464975 32.468907 32.474430 32.481733 32.490620 32.501251 32.513438 32.527313 32.542697 32.559694 32.578133 32.598092 32.619408 32.642134 32.666115 32.691380 32.717782 32.745328 32.773878 32.803419 32.833817 32.865043 32.896968 32.929547 32.962659 32.996244 33.030187 33.064417 33.098827 33.133333
33.511111 33.465596 33.420211 33.375073 33.330326 33.286069 33.242457 33.199571 33.157579 33.116541 33.076633 33.037892 33.000506 32.964486 32.930030 32.897119 32.865962 32.836511 32.808984 32.783300 32.759688 32.738034 32.718575 32.701161 32.686042 32.673028 32.662381 32.653872 32.647776 32.643821 32.642295 32.642886 32.645893 32.650963 32.658408 32.667834 32.679564 32.693164 32.708971 32.726511 32.746133 32.767325 32.790450 32.814960 32.841230 32.868683 32.897702 32.927685 32.959024 32.991096 33.024301 33.058002 33.092605 33.127463 33.162987 33.198529 33.234502 33.270261 33.306221 33.341748 33.377256 33.412125 33.446766 33.480583 33.513981 33.546388 33.578201 33.608883 33.638814 33.667494 33.695288 33.721735 33.747180 33.771203 33.794127 33.815575 33.835841 33.854596 33.872103 33.888077 33.902749 33.915880 33.927664 33.937910 33.946771 33.954104 33.960019 33.964422 33.967379 33.968843 33.968836 33.967357 33.964385 33.959967 33.954035 33.946684 33.937804 33.927537 33.915729 33.902571 33.887870 33.871863 33.854320 33.835524 33.815212 33.793713 33.770732 33.746644 33.721127 33.694601 33.666717 33.637939 33.607898 33.577096 33.545149 33.512594 33.479035 33.445040 33.410204 33.375121 33.339381 33.303601 33.267365 33.231306 33.195010 33.159118 33.123216 33.087952 33.052913 33.018744 32.985039 32.952433 32.920526 32.889939 32.860280 32.832150 32.805166 32.779903 32.755987 32.733967 32.713478 32.695035 32.678286 32.663710 32.650968 32.640498 32.631977 32.625802 32.621662 32.619914 32.620262 32.623020 32.627906 32.635192 32.644610 32.656392 32.670282 32.686474 32.704723 32.725185 32.747627 32.772169 32.798589 32.826973 32.857108 32.889049 32.922594 32.957767 32.994373 33.032412 33.071697 33.112201 33.153748 33.196287 33.239652 33.283772 33.328490 33.373716 33.419304 33.465147 33.511111
33.888889 33.832072 33.775411 33.719077 33.663206 33.607987 33.553533 33.500047 33.447617 33.396460 33.346637 33.298378 33.251712 33.206882 33.163883 33.122972 33.084108 33.047557 33.013241 32.981440 32.952032 32.925311 32.901110 32.879737 32.860978 32.845155 32.832007 32.821870 32.814430 32.810041 32.808337 32.809687 32.813673 32.820680 32.830238 32.842747 32.857684 32.875468 32.895524 32.918286 32.943131 32.970509 32.999752 33.031322 33.064513 33.099799 33.136440 33.174919 33.214468 33.255582 33.297468 33.340631 33.384264 33.428877 33.473656 33.519117 33.564447 33.610164 33.655464 33.700864 33.745579 33.790123 33.833732 33.876918 33.918948 33.960322 34.000344 34.039503 34.077146 34.113742 34.148685 34.182424 34.214404 34.245044 34.273845 34.301195 34.326651 34.350563 34.372546 34.392910 34.411328 34.428067 34.442857 34.455915 34.467035 34.476380 34.483802 34.489413 34.493123 34.494989 34.494980 34.493096 34.489367 34.483737 34.476294 34.466926 34.455783 34.442697 34.427878 34.411107 34.392652 34.372246 34.350218 34.326254 34.300742 34.273327 34.244454 34.213733 34.181664 34.147826 34.112771 34.076052 34.038273 33.998963 33.958773 33.917215 33.874983 33.831575 33.787721 33.742911 33.697906 33.652188 33.606544 33.560453 33.514718 33.468819 33.423568 33.378447 33.334269 33.290522 33.248010 33.206230 33.165970 33.126736 33.089296 33.053164 33.019079 32.986568 32.956337 32.927924 32.901995 32.878103 32.856871 32.837867 32.821665 32.807851 32.796949 32.788560 32.783158 32.780362 32.780594 32.783487 32.789413 32.798023 32.809636 32.823919 32.841142 32.860988 32.883677 32.908908 32.936855 32.967230 33.000163 33.035380 33.072970 33.112670 33.154531 33.198303 33.243999 33.291381 33.340430 33.390919 33.442799 33.495854 33.550007 33.605056 33.660898 33.717344 33.774270 33.831499 33.888889
34.266667 34.198594 34.130720 34.063220 33.996311 33.930144 33.864956 33.800868 33.738135 33.676846 33.617272 33.559468 33.503718 33.450040 33.398733 33.349772 33.303473 33.259764 33.218975 33.180987 33.146146 33.114278 33.085749 33.060328 33.038397 33.019669 33.004543 32.992672 32.984472 32.979536 32.978298 32.980287 32.985958 32.994774 33.007211 33.022670 33.041643 33.063469 33.088661 33.116498 33.147510 33.180920 33.217274 33.255745 33.296896 33.339851 33.385188 33.431994 33.480858 33.530837 33.582531 33.634973 33.688774 33.742953 33.798127 33.853312 33.909131 33.964604 34.020356 34.075423 34.130430 34.184436 34.238062 34.290402 34.342064 34.392188 34.441367 34.488789 34.535028 34.579328 34.622240 34.663065 34.702326 34.739388 34.774738 34.807808 34.839045 34.867948 34.894918 34.919525 34.942118 34.962338 34.980477 34.996249 35.009885 35.021170 35.030271 35.037046 35.041595 35.043848 35.043837 35.041563 35.036991 35.030193 35.021067 35.009755 34.996090 34.980286 34.962111 34.941852 34.919215 34.894559 34.867534 34.838569 34.807264 34.774117 34.738680 34.701522 34.662153 34.621209 34.578163 34.533716 34.487312 34.439709 34.390330 34.339985 34.288079 34.235473 34.181555 34.127228 34.071873 34.016425 33.960260 33.904338 33.848033 33.792323 33.736583 33.681794 33.627339 33.574195 33.521751 33.470972 33.421255 33.373544 33.327247 33.283276 33.241054 33.201454 33.163914 33.129261 33.096950 33.067757 33.041153 33.017862 32.997373 32.980348 32.966297 32.955823 32.948454 32.944730 32.944201 32.947344 32.953727 32.963766 32.977050 32.993932 33.014020 33.037609 33.064325 33.094405 33.127493 33.163772 33.202903 33.245015 33.289786 33.337297 33.387240 33.439652 33.494239 33.550997 33.609644 33.670139 33.732214 33.795793 33.860623 33.926595 33.993474 34.061122 34.129318 34.197900 34.266667
34.644444 34.565182 34.486140 34.407562 34.329640 34.252641 34.176727 34.102184 34.029138 33.957898 33.888548 33.821415 33.756543 33.694275 33.634607 33.577901 33.524100 33.473586 33.426247 33.382480 33.342115 33.305570 33.272610 33.243673 33.218457 33.197421 33.180194 33.167257 33.158165 33.153421 33.152507 33.155949 33.163154 33.174669 33.189827 33.209197 33.232039 33.258944 33.289098 33.323115 33.360112 33.400722 33.444001 33.490599 33.539513 33.591413 33.645246 33.701695 33.759666 33.819858 33.881144 33.944233 34.007978 34.073098 34.138436 34.204716 34.270784 34.337368 34.403325 34.469386 34.534431 34.599187 34.662570 34.725299 34.786334 34.846382 34.904456 34.961244 35.015822 35.068853 35.119480 35.168334 35.214633 35.258971 35.300640 35.340190 35.376995 35.411553 35.443319 35.472734 35.499336 35.523501 35.544853 35.563700 35.579747 35.593230 35.603939 35.612033 35.617385 35.620076 35.620064 35.617347 35.611969 35.603848 35.593110 35.579595 35.563514 35.544630 35.523237 35.499025 35.472372 35.442901 35.411070 35.376441 35.339555 35.299915 35.258145 35.213695 35.167271 35.118277 35.067494 35.014291 34.959522 34.902522 34.844214 34.783909 34.722590 34.659550 34.595826 34.530696 34.465244 34.398739 34.332299 34.265192 34.198557 34.131664 34.065666 33.999835 33.935326 33.871419 33.809258 33.748133 33.689167 33.631662 33.576709 33.523624 33.473459 33.425545 33.380883 33.338822 33.300309 33.264711 33.232910 33.204297 33.179685 33.158487 33.141447 33.127998 33.118813 33.113347 33.112200 33.114851 33.121825 33.132626 33.147704 33.166587 33.189654 33.216455 33.247301 33.281762 33.320084 33.361858 33.407266 33.455918 33.507939 33.562956 33.621038 33.681832 33.745354 33.811268 33.879544 33.949862 34.022150 34.096104 34.171613 34.248391 34.326293 34.405049 34.484485 34.564351 34.644444
35.022222 34.931834 34.841714 34.752099 34.663284 34.575472 34.488984 34.403984 34.320817 34.239603 34.160710 34.084211 34.010494 33.939582 33.871882 33.807360 33.746444 33.689040 33.635596 33.585951 33.540576 33.499239 33.462434 33.429853 33.402014 33.378531 33.359946 33.345791 33.336632 33.331918 33.332241 33.336963 33.346702 33.360732 33.379699 33.402790 33.430675 33.462457 33.498830 33.538817 33.583135 33.630729 33.682338 33.736838 33.794987 33.855600 33.919451 33.985303 34.053948 34.124103 34.196576 34.270053 34.345355 34.421149 34.498264 34.575363 34.653281 34.730691 34.808429 34.885189 34.961807 35.037012 35.111632 35.184445 35.256266 35.325929 35.394235 35.460083 35.524248 35.585707 35.645203 35.701793 35.756183 35.807515 35.856448 35.902216 35.945423 35.985397 36.022677 36.056688 36.087900 36.115832 36.140879 36.162656 36.181477 36.197053 36.209612 36.218961 36.225238 36.228346 36.228331 36.225194 36.218888 36.209508 36.196916 36.181304 36.162444 36.140624 36.115530 36.087545 36.056275 36.022199 35.984845 35.944790 35.901491 35.855619 35.806571 35.755111 35.700578 35.643828 35.584155 35.522498 35.458114 35.392024 35.323452 35.253494 35.181349 35.108181 35.033170 34.957539 34.880456 34.803188 34.724899 34.646891 34.568325 34.490525 34.412656 34.336049 34.259875 34.185462 34.111989 34.040767 33.970986 33.903927 33.838795 33.776829 33.717251 33.661246 33.608056 33.558804 33.512754 33.470959 33.432705 33.398970 33.369064 33.343884 33.322767 33.306527 33.294524 33.287490 33.284813 33.287136 33.293874 33.305588 33.321718 33.342742 33.368127 33.398268 33.432658 33.471617 33.514658 33.562029 33.613267 33.668548 33.727432 33.790029 33.855920 33.925155 33.997333 34.072448 34.150119 34.230290 34.312597 34.396938 34.482970 34.570547 34.659347 34.749187 34.839768 34.930871 35.022222
35.400000 35.298575 35.197436 35.096904 34.997229 34.898761 34.801708 34.706448 34.613144 34.522201 34.433728 34.348156 34.265540 34.186332 34.110526 34.038599 33.970477 33.906660 33.847004 33.792033 33.741524 33.696026 33.655236 33.619728 33.589112 33.563988 33.543876 33.529404 33.519997 33.516313 33.517678 33.524780 33.536847 33.554595 33.577153 33.605267 33.637967 33.676026 33.718382 33.765833 33.817225 33.873382 33.933068 33.997127 34.064248 34.135298 34.208897 34.285931 34.364967 34.446907 34.530276 34.615990 34.702546 34.790872 34.879452 34.969222 35.058668 35.148732 35.237916 35.327165 35.415014 35.502401 35.587909 35.672468 35.754721 35.835581 35.913762 35.990155 36.063555 36.134822 36.202842 36.268434 36.330580 36.390053 36.445935 36.498941 36.548258 36.594536 36.637070 36.676432 36.712027 36.744345 36.772899 36.798091 36.819541 36.837556 36.851866 36.862678 36.869829 36.873424 36.873407 36.869780 36.862596 36.851749 36.837401 36.819346 36.797852 36.772612 36.744005 36.711628 36.675968 36.636532 36.593916 36.547546 36.498125 36.445003 36.388992 36.329374 36.267067 36.201295 36.133076 36.061587 35.987941 35.911276 35.832794 35.751603 35.668986 35.584027 35.498079 35.410213 35.321840 35.232021 35.142216 35.051479 34.961304 34.870747 34.781318 34.692077 34.604540 34.517773 34.433280 34.350139 34.269825 34.191432 34.116393 34.043821 33.975092 33.909340 33.847876 33.789854 33.736513 33.687028 33.642557 33.602301 33.567326 33.536864 33.511886 33.491653 33.477041 33.467338 33.463325 33.464320 33.471005 33.482731 33.500083 33.522441 33.550299 33.583063 33.621140 33.663962 33.711851 33.764266 33.821445 33.882876 33.948719 34.018485 34.092263 34.169588 34.250483 34.334504 34.421614 34.511391 34.603743 34.698270 34.794830 34.893044 34.992727 35.093525 35.195210 35.297457 35.400000
35.777778 35.665397 35.553358 35.441960 35.331581 35.222478 35.115060 35.009536 34.906345 34.805642 34.707893 34.613196 34.522043 34.434465 34.350983 34.271555 34.196729 34.126386 34.061100 34.000669 33.945695 33.895886 33.851874 33.813270 33.780738 33.753790 33.733118 33.718129 33.709551 33.706682 33.710279 33.719533 33.735232 33.756455 33.784025 33.816907 33.855955 33.900028 33.950007 34.004647 34.064857 34.129294 34.198892 34.272218 34.350230 34.431414 34.516749 34.604653 34.696124 34.789526 34.885873 34.983489 35.083402 35.183913 35.286062 35.388143 35.491204 35.593550 35.696233 35.797587 35.898662 35.997839 36.096160 36.192066 36.286587 36.378239 36.468030 36.554564 36.638819 36.719495 36.797533 36.871739 36.943005 37.010247 37.074300 37.134196 37.190701 37.242967 37.291680 37.336114 37.376866 37.413333 37.446016 37.474431 37.498977 37.519292 37.535665 37.547855 37.556036 37.560089 37.560071 37.555982 37.547764 37.535535 37.519121 37.498761 37.474166 37.445697 37.412956 37.376424 37.335598 37.291082 37.242278 37.189909 37.133290 37.073265 37.009069 36.941666 36.870221 36.795815 36.717555 36.636632 36.552104 36.465268 36.375143 36.283123 36.188197 36.091846 35.993038 35.893328 35.791671 35.689683 35.586311 35.483217 35.379346 35.276390 35.173297 35.071770 34.970766 34.871982 34.774385 34.679649 34.586757 34.497344 34.410409 34.327533 34.247735 34.172529 34.100954 34.034446 33.972071 33.915171 33.862841 33.816328 33.774754 33.739262 33.709005 33.685020 33.666493 33.654351 33.647812 33.647694 33.653250 33.665189 33.682795 33.706674 33.736141 33.771700 33.812698 33.859540 33.911604 33.969201 34.031738 34.099437 34.171734 34.248769 34.330004 34.415500 34.504747 34.597735 34.693978 34.793403 34.895547 35.000278 35.107160 35.216007 35.326410 35.438135 35.550801 35.664132 35.777778
36.155556 36.032331 35.909464 35.787353 35.666310 35.546771 35.428996 35.313458 35.200359 35.090203 34.983132 34.879680 34.779918 34.684413 34.593158 34.506750 34.425101 34.348838 34.277782 34.212591 34.152990 34.099670 34.052254 34.011465 33.976817 33.949067 33.927617 33.913257 33.905272 33.904487 33.910065 33.922868 33.941934 33.968160 34.000461 34.039767 34.084872 34.136737 34.194036 34.257763 34.326477 34.401201 34.480389 34.565088 34.653657 34.747167 34.843894 34.944930 35.048481 35.155658 35.264615 35.376480 35.489369 35.604424 35.719748 35.836490 35.952756 36.069704 36.185463 36.301190 36.415057 36.528218 36.638906 36.748264 36.854601 36.959042 37.059988 37.158538 37.253194 37.345020 37.432632 37.517047 37.597002 37.673455 37.745272 37.813340 37.876655 37.936025 37.990579 38.041032 38.086649 38.128041 38.164609 38.196854 38.224308 38.247356 38.265665 38.279492 38.288640 38.293237 38.293217 38.288580 38.279392 38.265521 38.247167 38.224071 38.196562 38.164259 38.127627 38.086162 38.040465 37.989922 37.935267 37.875785 37.812343 37.744134 37.672159 37.595530 37.515377 37.430743 37.342886 37.250789 37.155832 37.056951 36.955637 36.850791 36.744009 36.634162 36.522938 36.409190 36.294683 36.178259 36.061742 35.943971 35.826814 35.709109 35.592747 35.476575 35.362486 35.249336 35.139004 35.030359 34.925245 34.822549 34.724063 34.628691 34.538158 34.451390 34.370029 34.293027 34.221930 34.155718 34.095834 34.041285 33.993401 33.951225 33.915969 33.886706 33.864530 33.848551 33.839738 33.837238 33.841900 33.852907 33.870988 33.895362 33.926642 33.964084 34.008190 34.058248 34.114653 34.176729 34.244770 34.318129 34.397006 34.480787 34.569581 34.662804 34.760484 34.862065 34.967499 35.076259 35.188230 35.302910 35.420123 35.539399 35.660503 35.782995 35.906593 36.030889 36.155556
36.533333 36.399366 36.265816 36.133053 36.001539 35.871589 35.743705 35.618144 35.495445 35.375799 35.259779 35.147505 35.039584 34.936055 34.837561 34.744052 34.656204 34.573873 34.497771 34.427649 34.364254 34.307229 34.257358 34.214167 34.178476 34.149689 34.128663 34.114676 34.108624 34.109650 34.118690 34.134751 34.158807 34.189730 34.228529 34.273939 34.327007 34.386332 34.452993 34.525464 34.604852 34.689509 34.780571 34.876278 34.977793 35.083254 35.193848 35.307628 35.425802 35.546355 35.670513 35.796211 35.924691 36.053862 36.184975 36.315934 36.447999 36.579088 36.710467 36.840091 36.969226 37.095883 37.221321 37.343631 37.464056 37.580781 37.695025 37.805082 37.912140 38.014613 38.113643 38.207776 38.298098 38.383293 38.464376 38.540175 38.611624 38.677695 38.739228 38.795344 38.846775 38.892791 38.934005 38.969836 39.000771 39.026374 39.046999 39.062357 39.072661 39.077766 39.077744 39.072596 39.062247 39.046843 39.026168 39.000512 38.969518 38.933624 38.892339 38.846244 38.794726 38.738512 38.676869 38.610674 38.539088 38.463135 38.381880 38.296492 38.205955 38.111582 38.012286 37.909517 37.802132 37.691711 37.577067 37.459901 37.338990 37.216147 37.090123 36.962826 36.832994 36.702609 36.570402 36.438416 36.305379 36.173370 36.041124 35.910735 35.780946 35.653845 35.528187 35.406034 35.286155 35.170565 35.058051 34.950559 34.846901 34.748938 34.655504 34.568363 34.486376 34.411195 34.341713 34.279460 34.223362 34.174821 34.132798 34.098564 34.071116 34.051591 34.039023 34.034416 34.036844 34.047176 34.064527 34.089635 34.121655 34.161199 34.207462 34.260934 34.320847 34.387578 34.460395 34.539568 34.624398 34.715054 34.810872 34.911926 35.017586 35.127838 35.242085 35.360234 35.481717 35.606372 35.733663 35.863362 35.994966 36.128190 36.262567 36.397757 36.533333
36.911111 36.766534 36.622389 36.479159 36.337220 36.197101 36.059115 35.923836 35.791509 35.662746 35.537717 35.417073 35.300901 35.189889 35.084032 34.984057 34.889859 34.802202 34.720874 34.646677 34.579282 34.519533 34.466977 34.422496 34.385508 34.356936 34.336060 34.323846 34.319431 34.323821 34.336007 34.357036 34.385751 34.423237 34.468187 34.521725 34.582394 34.651356 34.727006 34.810541 34.900217 34.997263 35.099804 35.209097 35.323149 35.443243 35.567285 35.696577 35.828941 35.965700 36.104611 36.247014 36.390622 36.536791 36.683215 36.831260 36.978626 37.126686 37.273172 37.419456 37.563327 37.706153 37.845796 37.983617 38.117574 38.249007 38.375988 38.499827 38.618726 38.733953 38.843849 38.949630 39.049785 39.145462 39.235305 39.320380 39.399492 39.473609 39.541698 39.604617 39.661494 39.713067 39.758623 39.798768 39.832948 39.861626 39.884408 39.901607 39.912987 39.918705 39.918681 39.912917 39.901489 39.884239 39.861403 39.832667 39.798424 39.758210 39.712578 39.660920 39.603948 39.540922 39.472715 39.398464 39.319203 39.233961 39.143931 39.048046 38.947658 38.841618 38.731433 38.615886 38.496632 38.372399 38.244985 38.113073 37.978590 37.840191 37.699914 37.556395 37.411768 37.264659 37.117278 36.968245 36.819826 36.670644 36.522993 36.375504 36.230477 36.086555 35.946019 35.807526 35.673315 35.542062 35.415941 35.293647 35.177273 35.065535 34.960426 34.860689 34.768198 34.681727 34.603022 34.530889 34.466937 34.410008 34.361567 34.320494 34.288106 34.263325 34.247319 34.239051 34.239542 34.247799 34.264697 34.289285 34.322301 34.362834 34.411487 34.467392 34.531022 34.601551 34.679330 34.763572 34.854513 34.951406 35.054379 35.162722 35.276465 35.394932 35.518065 35.645223 35.776265 35.910584 36.047965 36.187839 36.329923 36.473685 36.618782 36.764723 36.911111
37.288889 37.133822 36.979255 36.825628 36.673496 36.523234 36.375444 36.230433 36.088847 35.950916 35.817329 35.688228 35.564345 35.445729 35.333151 35.226557 35.126760 35.033592 34.947911 34.869424 34.799033 34.736316 34.682218 34.636178 34.599186 34.570535 34.551259 34.540500 34.539337 34.546752 34.563869 34.589508 34.624837 34.668512 34.721741 34.783017 34.853586 34.931779 35.018880 35.113062 35.215643 35.324649 35.441426 35.563863 35.693336 35.827611 35.968086 36.112425 36.262047 36.414533 36.571321 36.729933 36.891821 37.054474 37.219359 37.383958 37.549745 37.714224 37.878875 38.041250 38.202828 38.361233 38.517940 38.670668 38.820877 38.966404 39.108684 39.245687 39.378813 39.506181 39.629139 39.745967 39.857950 39.963532 40.063920 40.157730 40.246073 40.327741 40.403732 40.473015 40.536463 40.593219 40.644017 40.688174 40.726275 40.757808 40.783198 40.802104 40.814785 40.821070 40.821045 40.814709 40.801977 40.783016 40.757568 40.725973 40.687805 40.643572 40.592692 40.535844 40.472295 40.402897 40.326778 40.244967 40.156463 40.062473 39.961885 39.856077 39.743844 39.626737 39.503468 39.375755 39.242247 39.104820 38.962073 38.816031 38.665255 38.511904 38.354515 38.195364 38.032971 37.869709 37.704093 37.538567 37.371646 37.205822 37.039616 36.875540 36.712125 36.551877 36.393339 36.238986 36.087376 35.940924 35.798210 35.661566 35.529593 35.404523 35.284981 35.173077 35.067465 34.970121 34.879730 34.798123 34.724019 34.659094 34.602105 34.554569 34.515285 34.485607 34.464377 34.452789 34.449728 34.456228 34.471223 34.495589 34.528306 34.570100 34.619999 34.678583 34.744926 34.819473 34.901339 34.990842 35.087140 35.190432 35.299916 35.415678 35.536959 35.663742 35.795306 35.931540 36.071764 36.215781 36.362949 36.512996 36.665319 36.819578 36.975213 37.131821 37.288889
37.666667 37.501267 37.336378 37.172574 37.010298 36.850179 36.692589 36.538207 36.387325 36.240670 36.098446 35.961426 35.829717 35.704137 35.584686 35.472228 35.366644 35.268847 35.178590 35.096832 35.023191 34.958672 34.902748 34.856472 34.819163 34.791924 34.773910 34.766272 34.767998 34.780287 34.801950 34.834234 34.875774 34.927860 34.988948 35.060370 35.140402 35.230419 35.328520 35.436116 35.551140 35.675032 35.805571 35.944227 36.088634 36.240287 36.396698 36.559382 36.725751 36.897337 37.071475 37.249713 37.429336 37.611907 37.794687 37.979253 38.162874 38.347134 38.529342 38.711085 38.889740 39.066891 39.240011 39.410674 39.576470 39.738956 39.895859 40.048708 40.195385 40.337373 40.472727 40.602868 40.726030 40.843559 40.953874 41.058229 41.155229 41.246019 41.329396 41.406375 41.475942 41.538971 41.594637 41.643656 41.685388 41.720382 41.748182 41.769160 41.783042 41.790015 41.789988 41.782961 41.769023 41.747988 41.720125 41.685065 41.643260 41.594162 41.538407 41.475280 41.405603 41.328502 41.244989 41.154045 41.056872 40.952325 40.841795 40.724025 40.600594 40.470154 40.334468 40.192110 40.045023 39.891721 39.734317 39.571279 39.404876 39.233546 39.059695 38.881744 38.702217 38.519522 38.336281 38.150899 37.966063 37.780184 37.595988 37.411894 37.230635 37.050644 36.874631 36.701044 36.532545 36.367598 36.208787 36.054596 35.907511 35.766035 35.632533 35.505535 35.387265 35.276283 35.174657 35.080983 34.997163 34.921831 34.856717 34.800495 34.754720 34.718110 34.692043 34.675284 34.669036 34.672113 34.685545 34.708196 34.740930 34.782661 34.834093 34.894191 34.963505 35.041048 35.127230 35.221110 35.322962 35.431893 35.548051 35.670588 35.799537 35.934091 36.074181 36.219042 36.368506 36.521852 36.678826 36.838751 37.001293 37.165820 37.331927 37.499033 37.666667