# vtk DataFile Version 3.0
Steady-state temperature (Jacobi)
ASCII
DATASET STRUCTURED_POINTS
DIMENSIONS 181 181 1
ORIGIN 0.0 0.0 0.0
SPACING 0.05 0.05 1.0
POINT_DATA 32761
SCALARS Temperature float 1
LOOKUP_TABLE default
32.000000 32.000000 32.000000 32.000000 32.000000 32.000000 32.000000 32.000000
32.000000 32.000000 32.000000 32.000000 32.000000 32.000000 32.000000 32.000000
32.000000 32.000000 32.000000 32.000000 32.000000 32.000000 32.000000 32.000000
32.000000 32.000000 32.000000 32.000000 32.000000 32.000000 32.000000 32.000000
32.000000 32.000000 32.000000 32.000000 32.000000 32.000000 32.000000 32.000000
32.000000 32.000000 32.000000 32.000000 32.000000 32.000000 32.000000 32.000000
32.000000 32.000000 32.000000 32.000000 32.000000 32.000000 32.000000 32.000000
32.000000 32.000000 32.000000 32.000000 32.000000 32.000000 32.000000 32.000000
32.000000 32.000000 32.000000 32.000000 32.000000 32.000000 32.000000 32.000000
32.000000 32.000000 32.000000 32.000000 32.000000 32.000000 32.000000 32.000000
32.000000 32.000000 32.000000 32.000000 32.000000 32.000000 32.000000 32.000000
32.000000 32.000000 32.000000 32.000000 32.000000 32.000000 32.000000 32.000000
32.000000 32.000000 32.000000 32.000000 32.000000 32.000000 32.000000 32.000000
32.000000 32.000000 32.000000 32.000000 32.000000 32.000000 32.000000 32.000000
32.000000 32.000000 32.000000 32.000000 32.000000 32.000000 32.000000 32.000000
32.000000 32.000000 32.000000 32.000000 32.000000 32.000000 32.000000 32.000000
32.000000 32.000000 32.000000 32.000000 32.000000 32.000000 32.000000 32.000000
32.000000 32.000000 32.000000 32.000000 32.000000 32.000000 32.000000 32.000000
32.000000 32.000000 32.000000 32.000000 32.000000 32.000000 32.000000 32.000000
32.000000 32.000000 32.000000 32.000000 32.000000 32.000000 32.000000 32.000000
32.000000 32.000000 32.000000 32.000000 32.000000 32.000000 32.000000 32.000000
32.000000 32.000000 32.000000 32.000000 32.000000 32.000000 32.000000 32.000000
32.000000 32.000000 32.000000 32.000000 32.000000
32.377778 32.403920 32.430072 32.456243 32.482442 32.508679 32.534962 32.561301
32.587703 32.614178 32.640731 32.667373 32.694107 32.720943 32.747881 32.774933
32.802097 32.829382 32.856785 32.884316 32.911966 32.939746 32.967645 32.995671
33.023813 33.052075 33.080445 33.108925 33.137500 33.166171 33.194920 33.223746
33.252628 33.281565 33.310531 33.339525 33.368518 33.397506 33.426460 33.455373
33.484213 33.512972 33.541617 33.570138 33.598500 33.626692 33.654678 33.682447
33.709960 33.737205 33.764145 33.790766 33.817031 33.842927 33.868416 33.893486
33.918099 33.942244 33.965885 33.989009 34.011585 34.033600 34.055023 34.075844
34.096033 34.115582 34.134465 34.152672 34.170180 34.186982 34.203058 34.218401
34.232992 34.246828 34.259892 34.272182 34.283682 34.294391 34.304297 34.313399
34.321687 34.329160 34.335811 34.341639 34.346640 34.350811 34.354150 34.356657
34.358329 34.359166 34.359167 34.358334 34.356665 34.354163 34.350828 34.346662
34.341668 34.335846 34.329204 34.321740 34.313463 34.304374 34.294482 34.283789
34.272308 34.260040 34.246999 34.233189 34.218627 34.203316 34.187277 34.170513
34.153048 34.134888 34.116057 34.096564 34.076435 34.055679 34.034327 34.012388
33.989894 33.966857 33.943310 33.919266 33.894760 33.869805 33.844438 33.818672
33.792544 33.766069 33.739284 33.712202 33.684861 33.657275 33.629481 33.601491
33.573342 33.545044 33.516633 33.488120 33.459537 33.430894 33.402222 33.373528
33.344842 33.316168 33.287535 33.258945 33.230424 33.201973 33.173614 33.145347
33.117191 33.089144 33.061223 33.033424 33.005762 32.978231 32.950842 32.923589
32.896480 32.869508 32.842678 32.815982 32.789423 32.762991 32.736689 32.710505
32.684438 32.658478 32.632621 32.606857 32.581181 32.555580 32.530050 32.504578
32.479158 32.453777 32.428427 32.403097 32.377778
32.755556 32.807847 32.860158 32.912506 32.964912 33.017392 33.069967 33.122650
33.175465 33.228419 33.281538 33.334826 33.388306 33.441982 33.495874 33.549982
33.604327 33.658902 33.713727 33.768791 33.824113 33.879677 33.935498 33.991556
34.047863 34.104395 34.161160 34.218128 34.275306 34.332656 34.390183 34.447845
34.505641 34.563525 34.621491 34.679490 34.737511 34.795500 34.853444 34.911283
34.969001 35.026533 35.083862 35.140919 35.197683 35.254082 35.310095 35.365647
35.420713 35.475219 35.529138 35.582396 35.634965 35.686772 35.737788 35.787941
35.837205 35.885507 35.932823 35.979086 36.024269 36.068310 36.111186 36.152837
36.193244 36.232350 36.270139 36.306560 36.341599 36.375209 36.407379 36.438069
36.467269 36.494945 36.521087 36.545668 36.568680 36.590099 36.609921 36.628126
36.644709 36.659656 36.672965 36.684621 36.694626 36.702969 36.709650 36.714663
36.718008 36.719682 36.719686 36.718018 36.714680 36.709675 36.703003 36.694671
36.684678 36.673036 36.659744 36.644816 36.628254 36.610075 36.590282 36.568896
36.545920 36.521382 36.495286 36.467664 36.438522 36.407897 36.375798 36.342266
36.307314 36.270987 36.233300 36.194305 36.154019 36.112499 36.069764 36.025875
35.980855 35.934769 35.887641 35.839539 35.790491 35.740567 35.689794 35.638247
35.585953 35.532987 35.479377 35.425198 35.370477 35.315289 35.259661 35.203665
35.147327 35.090717 35.033856 34.976816 34.919612 34.862313 34.804932 34.747532
34.690124 34.632766 34.575466 34.518277 34.461202 34.404291 34.347542 34.291000
34.234660 34.178559 34.122691 34.067088 34.011739 33.956671 33.901871 33.847360
33.793122 33.739173 33.685494 33.632098 33.578964 33.526097 33.473477 33.421105
33.368958 33.317034 33.265308 33.213776 33.162412 33.111208 33.060138 33.009190
32.958340 32.907574 32.856866 32.806201 32.755556
33.133333 33.211788 33.290270 33.368811 33.447435 33.526175 33.605052 33.684100
33.763336 33.842794 33.922485 34.002445 34.082681 34.163225 34.244079 34.325275
34.406808 34.488708 34.570963 34.653602 34.736604 34.819995 34.903748 34.987885
35.072370 35.157221 35.242395 35.327905 35.413701 35.499789 35.586112 35.672671
35.759400 35.846296 35.933284 36.020356 36.107430 36.194491 36.281451 36.368290
36.454914 36.541296 36.627338 36.713009 36.798205 36.882892 36.966962 37.050377
37.133028 37.214874 37.295804 37.375777 37.454682 37.532476 37.609049 37.684360
37.758301 37.830832 37.901850 37.971315 38.039130 38.105259 38.169610 38.232148
38.292790 38.351506 38.408217 38.462899 38.515480 38.565940 38.614214 38.660288
38.704104 38.745649 38.784875 38.821773 38.856301 38.888452 38.918192 38.945516
38.970397 38.992831 39.012797 39.030292 39.045301 39.057823 39.067846 39.075370
39.080388 39.082900 39.082905 39.080403 39.075396 39.067884 39.057875 39.045369
39.030378 39.012904 38.992963 38.970557 38.945710 38.918423 38.888727 38.856625
38.822153 38.785318 38.746162 38.704696 38.660968 38.614991 38.566824 38.516482
38.464030 38.409489 38.352932 38.294383 38.233923 38.171580 38.107442 38.041541
37.973971 37.904769 37.834033 37.761804 37.688185 37.613218 37.537011 37.459606
37.381114 37.301579 37.221112 37.139756 37.057624 36.974754 36.891261 36.807180
36.722622 36.637621 36.552283 36.466637 36.380786 36.294755 36.208640 36.122462
36.036309 35.950197 35.864210 35.778355 35.692709 35.607275 35.522121 35.437244
35.352705 35.268495 35.184668 35.101209 35.018162 34.935511 34.853290 34.771477
34.690101 34.609136 34.528602 34.448469 34.368752 34.289418 34.210474 34.131884
34.053650 33.975736 33.898135 33.820811 33.743753 33.666923 33.590306 33.513863
33.437576 33.361407 33.285332 33.209317 33.133333
33.511111 33.615748 33.720424 33.825175 33.930042 34.035058 34.140266 34.245692
34.351382 34.457354 34.563656 34.670300 34.777331 34.884755 34.992617 35.100912
35.209685 35.318922 35.428664 35.538889 35.649634 35.760867 35.872619 35.984850
36.097586 36.210775 36.324437 36.438510 36.553008 36.667858 36.783067 36.898551
37.014309 37.130247 37.246358 37.362538 37.478769 37.594940 37.711026 37.826905
37.942548 38.057823 38.172694 38.287024 38.400771 38.513791 38.626038 38.737365
38.847720 38.956954 39.065014 39.171749 39.277105 39.380932 39.483174 39.583687
39.682414 39.779215 39.874037 39.966744 40.057287 40.145538 40.231452 40.314908
40.395867 40.474217 40.549924 40.622888 40.693077 40.760403 40.824840 40.886309
40.944791 41.000216 41.052568 41.101790 41.147869 41.190756 41.230443 41.266889
41.300090 41.330012 41.356653 41.379988 41.400014 41.416714 41.430087 41.440121
41.446817 41.450168 41.450174 41.446837 41.440156 41.430138 41.416784 41.400105
41.380103 41.356797 41.330189 41.300305 41.267148 41.230752 41.191123 41.148302
41.102297 41.053160 41.000902 40.945582 40.887218 40.825878 40.761583 40.694415
40.624397 40.551622 40.476120 40.397993 40.317276 40.234081 40.148450 40.060503
39.970287 39.877932 39.783486 39.687088 39.588790 39.488736 39.386981 39.283672
39.178867 39.072716 38.965274 38.856693 38.747029 38.636431 38.524952 38.412740
38.299844 38.186407 38.072474 37.958182 37.843569 37.728767 37.613807 37.498814
37.383810 37.268912 37.154135 37.039585 36.925271 36.811288 36.697637 36.584403
36.471580 36.359242 36.247375 36.136043 36.025225 35.914975 35.805264 35.696138
35.587561 35.479569 35.372121 35.265243 35.158891 35.053079 34.947764 34.842948
34.738585 34.634671 34.531157 34.428032 34.325245 34.222780 34.120585 34.018635
33.916884 33.815298 33.713833 33.612452 33.511111
33.888889 34.019736 34.150629 34.281621 34.412754 34.544081 34.675639 34.807483
34.939644 35.072177 35.205105 35.338484 35.472326 35.606688 35.741572 35.877032
36.013059 36.149705 36.286949 36.424840 36.563344 36.702505 36.842276 36.982695
37.123705 37.265332 37.407509 37.550254 37.693484 37.837213 37.981341 38.125874
38.270699 38.415812 38.561088 38.706512 38.851949 38.997372 39.142636 39.287705
39.432422 39.576744 39.720503 39.863650 40.006008 40.147521 40.288008 40.427406
40.565529 40.702311 40.837564 40.971218 41.103088 41.233101 41.361074 41.486936
41.610507 41.731718 41.850397 41.966478 42.079798 42.190295 42.297814 42.402302
42.503614 42.601703 42.696437 42.787775 42.875598 42.959872 43.040491 43.117428
43.190590 43.259955 43.325444 43.387041 43.444678 43.498343 43.547981 43.593584
43.635107 43.672544 43.705861 43.735054 43.760098 43.780990 43.797712 43.810265
43.818638 43.822830 43.822838 43.818664 43.810310 43.797777 43.781078 43.760212
43.735199 43.706041 43.672766 43.635376 43.593909 43.548369 43.498804 43.445221
43.387678 43.326186 43.260815 43.191581 43.118566 43.041791 42.961350 42.877273
42.789665 42.698562 42.604085 42.506275 42.405265 42.301104 42.193938 42.083821
41.970911 41.855268 41.737060 41.616351 41.493318 41.368029 41.240666 41.111301
40.980120 40.847194 40.712714 40.576749 40.439490 40.301003 40.161476 40.020973
39.879678 39.737648 39.595061 39.451968 39.308539 39.164816 39.020962 38.877009
38.733108 38.589284 38.445676 38.302299 38.159279 38.016622 37.874442 37.732733
37.591598 37.451021 37.311090 37.171783 37.033172 36.895229 36.758011 36.621483
36.485691 36.350591 36.216216 36.082519 35.949520 35.817165 35.685466 35.554365
35.423861 35.293894 35.164455 35.035481 34.906953 34.778809 34.651022 34.523529
34.396296 34.269262 34.142386 34.015611 33.888889
34.266667 34.423755 34.580903 34.738164 34.895603 35.053266 35.211221 35.369506
35.528191 35.687306 35.846920 36.007053 36.167774 36.329092 36.491074 36.653716
36.817082 36.981156 37.145996 37.311573 37.477939 37.645050 37.812953 37.981587
38.150991 38.321088 38.491909 38.663362 38.835465 39.008111 39.181310 39.354936
39.528988 39.703325 39.877935 40.052661 40.227478 40.402217 40.576842 40.751168
40.925148 41.098588 41.271430 41.443469 41.614637 41.784722 41.953648 42.121197
42.287288 42.451698 42.614343 42.774997 42.933574 43.089852 43.243743 43.395028
43.543623 43.689315 43.832022 43.971542 44.107798 44.240598 44.369873 44.495442
44.617244 44.735114 44.848997 44.958744 45.064310 45.165560 45.262456 45.354882
45.442806 45.526127 45.604823 45.678805 45.748058 45.812508 45.872145 45.926907
45.976790 46.021743 46.061765 46.096817 46.126898 46.151982 46.172068 46.187139
46.197195 46.202228 46.202238 46.197226 46.187192 46.172146 46.152088 46.127036
46.096992 46.061983 46.022011 45.977115 45.927300 45.872614 45.813064 45.748713
45.679572 45.605717 45.527163 45.444000 45.356251 45.264020 45.167337 45.066324
44.961016 44.851552 44.737976 44.620441 44.499002 44.373825 44.244974 44.112631
43.976866 43.837873 43.695730 43.550642 43.402691 43.252093 43.098934 42.943435
42.785683 42.625905 42.464187 42.300758 42.135703 41.969247 41.801472 41.632601
41.462708 41.292010 41.120574 40.948610 40.776173 40.603464 40.430530 40.257557
40.084581 39.911777 39.739168 39.566915 39.395029 39.223655 39.052794 38.882573
38.712982 38.544134 38.376007 38.208696 38.042170 37.876509 37.711671 37.547721
37.384609 37.222383 37.060987 36.900454 36.740722 36.581809 36.423649 36.266248
36.109533 35.953499 35.798072 35.643233 35.488909 35.335069 35.181640 35.028584
34.875827 34.723321 34.570998 34.418802 34.266667
34.644444 34.827815 35.011252 35.194829 35.378605 35.562657 35.747035 35.931821
36.117055 36.302819 36.489142 36.676106 36.863727 37.052087 37.241188 37.431108
37.621835 37.813443 38.005902 38.199282 38.393537 38.588727 38.784790 38.981778
39.179610 39.378327 39.577832 39.778154 39.979175 40.180913 40.383233 40.586138
40.789474 40.993232 41.197239 41.401473 41.605743 41.810013 42.014076 42.217883
42.421212 42.624000 42.826014 43.027180 43.227252 43.426147 43.623610 43.819551
44.013708 44.205985 44.396119 44.584008 44.769389 44.952161 45.132063 45.308994
45.482700 45.653084 45.819902 45.983059 46.142326 46.297615 46.448709 46.595530
46.737878 46.875683 47.008763 47.137058 47.260404 47.378751 47.491955 47.599975
47.702683 47.800051 47.891968 47.978412 48.059290 48.134587 48.204227 48.268200
48.326444 48.378953 48.425678 48.466619 48.501737 48.531033 48.554481 48.572082
48.583821 48.589698 48.589711 48.583858 48.572145 48.554573 48.531158 48.501900
48.466825 48.425935 48.379268 48.326826 48.268661 48.204777 48.135240 48.060058
47.979311 47.893015 47.801264 47.704080 47.601577 47.493784 47.380831 47.262758
47.139715 47.011749 46.879029 46.741613 46.599690 46.453326 46.302727 46.147970
45.989277 45.826734 45.660575 45.490895 45.317941 45.141812 44.962764 44.780900
44.596482 44.409614 44.220563 44.029430 43.836481 43.641816 43.445697 43.248217
43.049634 42.850031 42.649659 42.448590 42.247064 42.045143 41.843053 41.640842
41.438723 41.236730 41.035059 40.833731 40.632923 40.432645 40.233054 40.034145
39.836057 39.638773 39.442413 39.246946 39.052474 38.858954 38.666470 38.474967
38.284512 38.095042 37.906604 37.719128 37.532644 37.347076 37.162438 36.978648
36.795706 36.613526 36.432093 36.251320 36.071179 35.891583 35.712491 35.533817
35.355510 35.177486 34.999685 34.822027 34.644444
35.022222 35.231918 35.441694 35.651624 35.861794 36.072267 36.283136 36.494451
36.706308 36.918748 37.131863 37.345682 37.560298 37.775724 37.992049 38.209271
38.427476 38.646643 38.866851 39.088061 39.310346 39.533647 39.758025 39.983403
40.209832 40.437212 40.665583 40.894822 41.124956 41.355842 41.587491 41.819738
42.052581 42.285831 42.519471 42.753292 42.987261 43.221150 43.454908 43.688291
43.921233 44.153473 44.384931 44.615333 44.844586 45.072403 45.298683 45.523130
45.745634 45.965894 46.183795 46.399034 46.611492 46.820870 47.027047 47.229730
47.428802 47.623978 47.815145 48.002032 48.184534 48.362393 48.535515 48.703660
48.866743 49.024544 49.176990 49.323883 49.465160 49.600645 49.730287 49.853930
49.971537 50.082972 50.188206 50.287124 50.379708 50.465859 50.545568 50.618753
50.685410 50.745474 50.798944 50.845771 50.885955 50.919460 50.946289 50.966418
50.979849 50.986571 50.986585 50.979892 50.966492 50.946396 50.919605 50.886143
50.846009 50.799241 50.745838 50.685851 50.619284 50.546201 50.466609 50.380591
50.288157 50.189408 50.084363 49.973140 49.855768 49.732384 49.603028 49.467859
49.326926 49.180411 49.028375 48.871020 48.708421 48.540801 48.368244 48.190993
48.009146 47.822962 47.632547 47.438177 47.239964 47.038198 46.832996 46.624656
46.413299 46.199228 45.982563 45.763611 45.542488 45.319499 45.094755 44.868555
44.641002 44.412389 44.182805 43.952533 43.721650 43.490424 43.258919 43.027385
42.795873 42.564615 42.333644 42.103173 41.873220 41.643976 41.415444 41.187794
40.961012 40.735247 40.510470 40.286808 40.064218 39.842807 39.622518 39.403436
39.185493 38.968755 38.753143 38.538703 38.325349 38.113105 37.901882 37.691685
37.482418 37.274072 37.066548 36.859820 36.653787 36.448410 36.243588 36.039269
35.835354 35.631780 35.428452 35.225296 35.022222
35.400000 35.636073 35.872233 36.108576 36.345179 36.582143 36.819535 37.057459
37.295970 37.535173 37.775109 38.015884 38.257521 38.500125 38.743702 38.988352
39.234062 39.480927 39.728914 39.978109 40.228457 40.480036 40.732769 40.986720
41.241790 41.498031 41.755319 42.013690 42.272997 42.533261 42.794308 43.056143
43.318569 43.581572 43.844931 44.108614 44.372378 44.636172 44.899731 45.162989
45.425658 45.687657 45.948681 46.208633 46.467195 46.724255 46.979483 47.232759
47.483743 47.732307 47.978109 48.221013 48.460680 48.696971 48.929551 49.158283
49.382840 49.603090 49.818719 50.029602 50.235439 50.436117 50.631355 50.821050
51.004944 51.182946 51.354822 51.520495 51.679754 51.832536 51.978655 52.118062
52.250594 52.376214 52.494783 52.606276 52.710574 52.807662 52.897443 52.979908
53.054977 53.122648 53.182860 53.235611 53.280857 53.318599 53.348805 53.371478
53.386600 53.394171 53.394188 53.386649 53.371562 53.348928 53.318764 53.281072
53.235883 53.183197 53.123062 53.055478 52.980510 52.898161 52.808513 52.711574
52.607445 52.496143 52.377787 52.252405 52.120138 51.981023 51.835227 51.682799
51.523929 51.358680 51.187266 51.009766 50.826417 50.637311 50.442709 50.242716
50.037616 49.827523 49.612742 49.393397 49.169807 48.942106 48.710624 48.475499
48.237072 47.995481 47.751071 47.503978 47.254548 47.002912 46.749412 46.494171
46.237524 45.979582 45.720668 45.460882 45.200530 44.939698 44.678676 44.417530
44.156532 43.895730 43.635376 43.375499 43.116326 42.857869 42.600331 42.343707
42.088174 41.833710 41.580469 41.328410 41.077663 40.828173 40.580046 40.333212
40.087754 39.843591 39.600781 39.359233 39.118986 38.879939 38.642108 38.405389
38.169777 37.935163 37.701525 37.468750 37.236801 37.005563 36.774983 36.544949
36.315395 36.086210 35.857316 35.628609 35.400000
35.777778 36.040281 36.302887 36.565689 36.828796 37.092290 37.356287 37.620855
37.886112 38.152112 38.418974 38.686734 38.955511 39.225322 39.496282 39.768389
40.041752 40.316347 40.592275 40.869489 41.148081 41.427978 41.709261 41.991832
42.275757 42.560912 42.847348 43.134913 43.423642 43.713354 44.004066 44.295571
44.587864 44.880712 45.174090 45.467739 45.761613 46.055428 46.349118 46.642374
46.935113 47.227005 47.517946 47.807591 48.095819 48.382270 48.666809 48.949064
49.228891 49.505912 49.779974 50.050696 50.317923 50.581276 50.840600 51.095523
51.345893 51.591350 51.831750 52.066749 52.296212 52.519816 52.737437 52.948776
53.153724 53.352006 53.543529 53.728046 53.905479 54.075608 54.238371 54.393577
54.541177 54.681007 54.813032 54.937113 55.053227 55.161258 55.261193 55.352936
55.436483 55.511758 55.578759 55.637431 55.687774 55.729748 55.763355 55.788569
55.805392 55.813812 55.813830 55.805448 55.788664 55.763494 55.729935 55.688017
55.637737 55.579139 55.512222 55.437046 55.353611 55.261997 55.162209 55.054346
54.938420 54.814552 54.682764 54.543199 54.395892 54.241013 54.078608 53.908873
53.731872 53.547827 53.356817 53.159094 52.954751 52.744067 52.527152 52.304311
52.075666 51.841546 51.602087 51.357636 51.108341 50.854564 50.596460 50.334404
50.068553 49.799291 49.526774 49.251388 48.973287 48.692855 48.410235 48.125807
47.839705 47.552295 47.263697 46.974265 46.684101 46.393541 46.102669 45.811799
45.520996 45.230552 44.940511 44.651138 44.362458 44.074709 43.787896 43.502230
43.217695 42.934475 42.652534 42.372029 42.092908 41.815299 41.539134 41.264514
40.991357 40.719739 40.449564 40.180884 39.913592 39.647718 39.383145 39.119881
38.857802 38.596897 38.337037 38.078191 37.820230 37.563103 37.306682 37.050901
36.795634 36.540800 36.286279 36.031976 35.777778
36.155556 36.444552 36.733657 37.022989 37.312647 37.602754 37.893397 38.184703
38.476742 38.769646 39.063466 39.358334 39.654281 39.951437 40.249812 40.549530
40.850578 41.153073 41.456978 41.762400 42.069274 42.377697 42.687576 42.998993
43.311826 43.626142 43.941789 44.258814 44.577037 44.896484 45.216945 45.538425
45.860682 46.183699 46.507206 46.831163 47.155269 47.479463 47.803417 48.127046
48.449999 48.772169 49.093184 49.412916 49.730975 50.047217 50.361237 50.672876
50.981719 51.287599 51.590095 51.889032 52.183990 52.474792 52.761024 53.042511
53.318848 53.589868 53.855182 54.114632 54.367849 54.614688 54.854806 55.088072
55.314170 55.532987 55.744237 55.947825 56.143494 56.331168 56.510622 56.681797
56.844498 56.998682 57.144183 57.280973 57.408912 57.527983 57.638074 57.739175
57.831196 57.914135 57.987922 58.052559 58.107994 58.154230 58.191233 58.219005
58.237527 58.246802 58.246822 58.237590 58.219112 58.191387 58.154439 58.108264
58.052901 57.988345 57.914653 57.831822 57.739926 57.638967 57.529039 57.410151
57.282421 57.145865 57.000626 56.846733 56.684356 56.513539 56.334480 56.147240
55.952046 55.748978 55.538294 55.320091 55.094659 54.862114 54.622774 54.376772
54.124456 53.865973 53.601694 53.331781 53.056626 52.776399 52.491510 52.202134
51.908691 51.611359 51.310564 51.006481 50.699538 50.389902 50.077996 49.763977
49.448259 49.130983 48.812549 48.493082 48.172963 47.852299 47.531446 47.210490
46.889765 46.569332 46.249499 45.930303 45.612023 45.294675 44.978506 44.663509
44.349902 44.037656 43.726957 43.417758 43.110213 42.804255 42.500010 42.197394
41.896503 41.597238 41.299669 41.003682 40.709321 40.416462 40.125122 39.835172
39.546603 39.259280 38.973174 38.688145 38.404145 38.121031 37.838737 37.557124
37.276107 36.995551 36.715357 36.435396 36.155556
36.533333 36.848884 37.164560 37.480476 37.796767 38.113533 38.430917 38.749001
39.067932 39.387776 39.708679 40.030688 40.353946 40.678479 41.004425 41.331787
41.660696 41.991128 42.323205 42.656874 42.992247 43.329241 43.667952 44.008268
44.350268 44.693807 45.038945 45.385504 45.733523 46.082791 46.433325 46.784878
47.137444 47.490745 47.844746 48.199138 48.553862 48.908576 49.263197 49.617355
49.970940 50.323557 50.675075 51.025074 51.373403 51.719624 52.063568 52.404784
52.743089 53.078023 53.409394 53.736739 54.059861 54.378301 54.691861 55.000091
55.302799 55.599549 55.890158 56.174211 56.451537 56.721748 56.984688 57.239998
57.487542 57.726991 57.958231 58.180967 58.395104 58.600382 58.796728 58.983914
59.161886 59.330451 59.489571 59.639083 59.778965 59.909081 60.029422 60.139878
60.240447 60.331044 60.411672 60.482266 60.542832 60.593324 60.633747 60.664073
60.684307 60.694434 60.694457 60.684376 60.664192 60.633919 60.593555 60.543132
60.482644 60.412140 60.331616 60.241138 60.140705 60.030406 59.910243 59.780328
59.640674 59.491418 59.332584 59.164339 58.986719 58.799925 58.604010 58.399206
58.185588 57.963419 57.732796 57.494018 57.247200 56.992677 56.730585 56.461290
56.184945 55.901948 55.612468 55.316926 55.015508 54.708653 54.396556 54.079673
53.758203 53.432610 53.103093 52.770121 52.433888 52.094859 51.753219 51.409425
51.063647 50.716330 50.367626 50.017961 49.667465 49.316544 48.965304 48.614124
48.263088 47.912543 47.562547 47.213420 46.865191 46.518147 46.172295 45.827886
45.484901 45.143561 44.803821 44.465869 44.129638 43.795283 43.462719 43.132066
42.803222 42.476277 42.151114 41.827791 41.506180 41.186310 40.868042 40.551381
40.236178 39.922412 39.609932 39.298693 38.988540 38.679409 38.371144 38.063662
37.756810 37.450488 37.144549 36.838877 36.533333
36.911111 37.253286 37.595593 37.938175 38.281151 38.624671 38.968840 39.313812
39.659674 40.006583 40.354604 40.703895 41.054498 41.406568 41.760120 42.115305
42.472111 42.830678 43.190966 43.553104 43.917021 44.282830 44.650426 45.019908
45.391137 45.764189 46.138892 46.515299 46.893201 47.272629 47.653336 48.035327
48.418319 48.802288 49.186916 49.572152 49.957642 50.343307 50.728760 51.113893
51.498290 51.881818 52.264031 52.644772 53.023575 53.400259 53.774339 54.145620
54.513602 54.878077 55.238540 55.594774 55.946273 56.292819 56.633913 56.969338
57.298609 57.621519 57.937601 58.246659 58.548255 58.842209 59.128111 59.405804
59.674912 59.935298 60.186624 60.428776 60.661456 60.884571 61.097862 61.301259
61.494538 61.677651 61.850409 62.012782 62.164613 62.305886 62.436475 62.556375
62.665484 62.763806 62.851265 62.927865 62.993552 63.048332 63.092169 63.125068
63.147009 63.157995 63.158021 63.147086 63.125199 63.092359 63.048588 62.993882
62.928281 62.851779 62.764434 62.666241 62.557281 62.437552 62.307157 62.166102
62.014519 61.852424 61.679977 61.497209 61.304314 61.101341 60.888519 60.665917
60.433801 60.192262 59.941605 59.681946 59.413627 59.136786 58.851803 58.558839
58.258309 57.950392 57.635535 57.313934 56.986060 56.652124 56.312617 55.967756
55.618047 55.263711 54.905258 54.542907 54.177171 53.808258 53.436675 53.062619
52.686582 52.308744 51.929581 51.549249 51.168202 50.786573 50.404786 50.022949
49.641456 49.260386 48.880101 48.500650 48.122361 47.745255 47.369623 46.995459
46.623016 46.252261 45.883412 45.516411 45.151439 44.788415 44.427485 44.068547
43.711712 43.356861 43.004071 42.653208 42.304319 41.957255 41.612033 41.268497
40.926634 40.586280 40.247399 39.909821 39.573486 39.238225 38.903954 38.570505
38.237777 37.905606 37.573871 37.242418 36.911111
37.288889 37.657756 38.026774 38.396079 38.765833 39.136157 39.507218 39.879121
40.252037 40.626049 41.001330 41.377939 41.756047 42.135687 42.517026 42.900069
43.284973 43.671714 44.060439 44.451089 44.843798 45.238472 45.635228 46.033936
46.434693 46.837331 47.241923 47.648264 48.056401 48.466090 48.877348 49.289894
49.703715 50.118489 50.534173 50.950406 51.367116 51.783903 52.200662 52.616961
53.032664 53.447307 53.860726 54.272429 54.682227 55.089603 55.494349 55.895931
56.294122 56.688378 57.078460 57.463821 57.844215 58.219099 58.588228 58.951070
59.307385 59.656660 59.998668 60.332919 60.659206 60.977068 61.286320 61.586536
61.877556 62.158995 62.430716 62.692376 62.943867 63.184888 63.415355 63.635008
63.843788 64.041477 64.228035 64.403280 64.567191 64.719621 64.860562 64.989896
65.107626 65.213661 65.308009 65.390603 65.461452 65.520510 65.567787 65.603252
65.626912 65.638755 65.638783 65.626997 65.603395 65.567996 65.520791 65.461815
65.391058 65.308572 65.214346 65.108452 64.990883 64.861734 64.721002 64.568810
64.405165 64.230220 64.043998 63.846683 63.638316 63.419121 63.189158 62.948692
62.697806 62.436808 62.165808 61.885153 61.594982 61.295683 60.987422 60.670627
60.345487 60.012467 59.671776 59.323912 58.969101 58.607865 58.240442 57.867375
57.488907 57.105591 56.717672 56.325706 55.929931 55.530901 55.128843 54.724298
54.317477 53.908904 53.498767 53.087568 52.675470 52.262948 51.850135 51.437473
51.025066 50.613323 50.202313 49.792410 49.383652 48.976371 48.570577 48.166561
47.764303 47.364054 46.965766 46.569651 46.175633 45.783887 45.394312 45.007045
44.621965 44.239171 43.858526 43.480093 43.103718 42.729433 42.357072 41.986635
41.617947 41.250979 40.885551 40.521607 40.158963 39.797538 39.437150 39.077697
38.718997 38.360929 38.003319 37.646027 37.288889
37.666667 38.062303 38.458095 38.854214 39.250800 39.648032 40.046033 40.444988
40.844999 41.246253 41.648829 42.052915 42.458562 42.865953 43.275112 43.686216
44.099255 44.514397 44.931599 45.351013 45.772561 46.196379 46.622351 47.050591
47.480944 47.913501 48.348066 48.784703 49.223173 49.663513 50.105441 50.548960
50.993747 51.439772 51.886669 52.334374 52.782480 53.230888 53.679151 54.127137
54.574362 55.020663 55.465520 55.908742 56.349782 56.788421 57.224089 57.656547
58.085210 58.509821 58.929787 59.344841 59.754391 60.158166 60.555582 60.946372
61.329967 61.706113 62.074264 62.434182 62.785353 63.127560 63.460328 63.783464
64.096535 64.399379 64.691607 64.973085 65.243472 65.502665 65.750366 65.986501
66.210819 66.423270 66.623644 66.811913 66.987906 67.151614 67.302898 67.441761
67.568096 67.681915 67.783136 67.871773 67.947770 68.011139 68.061843 68.099893
68.125267 68.137973 68.138003 68.125359 68.100051 68.062071 68.011446 67.948165
67.872270 67.783747 67.682660 67.568993 67.442832 67.304167 67.153109 66.989656
66.813950 66.626003 66.425989 66.213939 65.990066 65.754421 65.507261 65.248662
64.978926 64.698157 64.406703 64.104698 63.792537 63.470384 63.138679 62.797614
62.447673 62.089073 61.722335 61.347699 60.965717 60.576645 60.181060 59.779229
59.371746 58.958880 58.541233 58.119074 57.693002 57.263276 56.830490 56.394883
55.957034 55.517163 55.075825 54.633213 54.189853 53.745911 53.301879 52.857888
52.414396 51.971499 51.529616 51.088807 50.649449 50.211569 49.775501 49.341239
48.909072 48.478963 48.051158 47.625591 47.202465 46.781686 46.363416 45.947537
45.534171 45.123178 44.714644 44.308408 43.904520 43.502806 43.103281 42.705758
42.310221 41.916476 41.524475 41.134020 40.745036 40.357324 39.970784 39.585218
39.200502 38.816447 38.432907 38.049700 37.666667
38.044444 38.466921 38.889574 39.312566 39.736085 40.160275 40.585333 41.011383
41.438624 41.867158 42.297186 42.728782 43.162146 43.597321 44.034502 44.473700
44.915101 45.358681 45.804612 46.252835 46.703503 47.156518 47.612013 48.069850
48.530138 48.992693 49.457599 49.924627 50.393831 50.864937 51.337963 51.812592
52.288806 52.766240 53.244841 53.724198 54.204221 54.684453 55.164767 55.644665
56.123984 56.602186 57.079074 57.554077 58.026967 58.497143 58.964351 59.427971
59.887726 60.342982 60.793448 61.238485 61.677796 62.110744 62.537032 62.956039
63.367476 63.770742 64.165564 64.551373 64.927918 65.294668 65.651398 65.997621
66.333145 66.657530 66.970617 67.272017 67.561605 67.839042 68.104237 68.356902
68.596972 68.824209 69.038575 69.239874 69.428090 69.603066 69.764802 69.913176