# vtk DataFile Version 3.0
Steady-state temperature (Jacobi)
ASCII
DATASET STRUCTURED_POINTS
DIMENSIONS 181 181 1
ORIGIN 0.0 0.0 0.0
SPACING 0.05 0.05 1.0
POINT_DATA 32761
SCALARS Temperature float 1
LOOKUP_TABLE default
32.000000 32.000000 32.000000 32.000000 32.000000 32.000000 32.000000 32.000000
32.000000 32.000000 32.000000 32.000000 32.000000 32.000000 32.000000 32.000000
32.000000 32.000000 32.000000 32.000000 32.000000 32.000000 32.000000 32.000000
32.000000 32.000000 32.000000 32.000000 32.000000 32.000000 32.000000 32.000000
32.000000 32.000000 32.000000 32.000000 32.000000 32.000000 32.000000 32.000000
32.000000 32.000000 32.000000 32.000000 32.000000 32.000000 32.000000 32.000000
32.000000 32.000000 32.000000 32.000000 32.000000 32.000000 32.000000 32.000000
32.000000 32.000000 32.000000 32.000000 32.000000 32.000000 32.000000 32.000000
32.000000 32.000000 32.000000 32.000000 32.000000 32.000000 32.000000 32.000000
32.000000 32.000000 32.000000 32.000000 32.000000 32.000000 32.000000 32.000000
32.000000 32.000000 32.000000 32.000000 32.000000 32.000000 32.000000 32.000000
32.000000 32.000000 32.000000 32.000000 32.000000 32.000000 32.000000 32.000000
32.000000 32.000000 32.000000 32.000000 32.000000 32.000000 32.000000 32.000000
32.000000 32.000000 32.000000 32.000000 32.000000 32.000000 32.000000 32.000000
32.000000 32.000000 32.000000 32.000000 32.000000 32.000000 32.000000 32.000000
32.000000 32.000000 32.000000 32.000000 32.000000 32.000000 32.000000 32.000000
32.000000 32.000000 32.000000 32.000000 32.000000 32.000000 32.000000 32.000000
32.000000 32.000000 32.000000 32.000000 32.000000 32.000000 32.000000 32.000000
32.000000 32.000000 32.000000 32.000000 32.000000 32.000000 32.000000 32.000000
32.000000 32.000000 32.000000 32.000000 32.000000 32.000000 32.000000 32.000000
32.000000 32.000000 32.000000 32.000000 32.000000 32.000000 32.000000 32.000000
32.000000 32.000000 32.000000 32.000000 32.000000 32.000000 32.000000 32.000000
32.000000 32.000000 32.000000 32.000000 32.000000
32.377778 32.369673 32.361598 32.353592 32.345678 32.337899 32.330273 32.322847
32.315635 32.308685 32.302005 32.295649 32.289617 32.283966 32.278689 32.273846
32.269423 32.265484 32.262004 32.259052 32.256594 32.254702 32.253332 32.252561
32.252333 32.252728 32.253682 32.255275 32.257434 32.260242 32.263615 32.267637
32.272216 32.277436 32.283196 32.289582 32.296481 32.303983 32.311964 32.320516
32.329507 32.339028 32.348939 32.359334 32.370065 32.381226 32.392663 32.404471
32.416491 32.428819 32.441292 32.454005 32.466795 32.479756 32.492724 32.505793
32.518801 32.531841 32.544753 32.557630 32.570314 32.582899 32.595232 32.607404
32.619270 32.630919 32.642212 32.653237 32.663864 32.674175 32.684052 32.693573
32.702628 32.711291 32.719464 32.727215 32.734456 32.741249 32.747518 32.753317
32.758582 32.763359 32.767596 32.771330 32.774520 32.777196 32.779328 32.780936
32.782001 32.782534 32.782529 32.781985 32.780910 32.779291 32.777148 32.774460
32.771257 32.767510 32.763259 32.758467 32.753185 32.747369 32.741081 32.734267
32.727003 32.719227 32.711028 32.702335 32.693248 32.683694 32.673780 32.663428
32.652758 32.641686 32.630342 32.618638 32.606714 32.594478 32.582078 32.569421
32.556659 32.543700 32.530700 32.517567 32.504460 32.491285 32.478206 32.465128
32.452215 32.439371 32.426762 32.414291 32.402121 32.390156 32.378556 32.367226
32.356319 32.345741 32.335641 32.325926 32.316735 32.307977 32.299785 32.292068
32.284949 32.278339 32.272353 32.266903 32.262094 32.257839 32.254233 32.251192
32.248801 32.246978 32.245798 32.245180 32.245189 32.245749 32.246913 32.248608
32.250878 32.253653 32.256967 32.260754 32.265039 32.269758 32.274930 32.280492
32.286456 32.292762 32.299415 32.306360 32.313593 32.321063 32.328760 32.336638
32.344678 32.352840 32.361101 32.369423 32.377778
32.755556 32.739361 32.723234 32.707231 32.691431 32.675878 32.660660 32.645810
32.631425 32.617523 32.604211 32.591494 32.579484 32.568173 32.557682 32.547985
32.539210 32.531317 32.524438 32.518517 32.513692 32.509888 32.507251 32.505685
32.505343 32.506108 32.508139 32.511299 32.515752 32.521340 32.528230 32.536246
32.545559 32.555970 32.567655 32.580396 32.594371 32.609343 32.625492 32.642562
32.660738 32.679746 32.699771 32.720526 32.742197 32.764483 32.787571 32.811151
32.835409 32.860027 32.885193 32.910581 32.936381 32.962263 32.988419 33.014518
33.040749 33.066789 33.092824 33.118535 33.144109 33.169236 33.194099 33.218401
33.242320 33.265575 33.288339 33.310346 33.331765 33.352347 33.372252 33.391253
33.409502 33.426791 33.443262 33.458728 33.473320 33.486873 33.499506 33.511076
33.521684 33.531215 33.539752 33.547201 33.553629 33.558967 33.563263 33.566469
33.568616 33.569679 33.569669 33.568585 33.566417 33.563189 33.558871 33.553509
33.547056 33.539580 33.531015 33.521454 33.510812 33.499207 33.486536 33.472941
33.458303 33.442788 33.426264 33.408917 33.390605 33.371535 33.351555 33.330893
33.309387 33.287286 33.264421 33.241057 33.217020 33.192592 33.167594 33.142322
33.116594 33.090718 33.064507 33.038281 33.011851 32.985542 32.959165 32.933048
32.907000 32.881352 32.855913 32.831009 32.806450 32.782558 32.759143 32.736518
32.714495 32.693376 32.672973 32.653576 32.635000 32.617518 32.600947 32.585545
32.571130 32.557943 32.545804 32.534935 32.525159 32.516679 32.509322 32.503269
32.498353 32.494733 32.492249 32.491038 32.490944 32.492086 32.494312 32.497723
32.502171 32.507739 32.514287 32.521876 32.530374 32.539826 32.550105 32.561240
32.573111 32.585732 32.598990 32.612884 32.627309 32.642250 32.657610 32.673361
32.689415 32.705732 32.722231 32.738863 32.755556
33.133333 33.109086 33.084932 33.060981 33.037311 33.014045 32.991243 32.969042
32.947483 32.926717 32.906764 32.887788 32.869786 32.852934 32.837206 32.822791
32.809637 32.797943 32.787634 32.778915 32.771687 32.766164 32.762217 32.760071
32.759567 32.760938 32.763995 32.768980 32.775671 32.784319 32.794670 32.806980
32.820968 32.836893 32.854442 32.873881 32.894868 32.917672 32.941923 32.967894
32.995187 33.024080 33.054150 33.085677 33.118217 33.152052 33.186720 33.222503
33.258926 33.296272 33.334056 33.372560 33.411292 33.450537 33.489799 33.529364
33.568738 33.608205 33.647280 33.686243 33.724622 33.762693 33.800001 33.836817
33.872705 33.907931 33.942080 33.975412 34.007538 34.038708 34.068560 34.097333
34.124698 34.150875 34.175569 34.198985 34.220860 34.241379 34.260314 34.277828
34.293729 34.308155 34.320948 34.332223 34.341857 34.349936 34.356373 34.361226
34.364443 34.366052 34.366037 34.364396 34.361148 34.356262 34.349792 34.341677
34.332006 34.320691 34.307855 34.293383 34.277434 34.259866 34.240874 34.220292
34.198349 34.174859 34.150085 34.123820 34.096361 34.067485 34.037520 34.006231
33.973974 33.940501 33.906199 33.870810 33.834746 33.797741 33.760231 33.721942
33.683331 33.644121 33.604783 33.565036 33.525364 33.485485 33.445889 33.406292
33.367189 33.328295 33.290102 33.252326 33.215453 33.179200 33.144043 33.109700
33.076631 33.044557 33.013921 32.984445 32.956551 32.929962 32.905080 32.881629
32.859983 32.839874 32.821645 32.805033 32.790352 32.777344 32.766294 32.756948
32.749562 32.743888 32.740151 32.738111 32.737962 32.739472 32.742804 32.747737
32.754404 32.762591 32.772407 32.783644 32.796384 32.810432 32.825843 32.842431
32.860229 32.879060 32.898935 32.919690 32.941312 32.963649 32.986669 33.010233
33.034289 33.058710 33.083429 33.108331 33.133333
33.511111 33.478858 33.446740 33.414874 33.383414 33.352453 33.322166 33.292620
33.264008 33.236371 33.209920 33.184666 33.160837 33.138416 33.117644 33.098472
33.081157 33.065617 33.052122 33.040553 33.031195 33.023892 33.018940 33.016146
33.015818 33.017722 33.022175 33.028905 33.038239 33.049862 33.064110 33.080627
33.099758 33.121105 33.145019 33.171061 33.199591 33.230130 33.263043 33.297813
33.334810 33.373485 33.414209 33.456403 33.500440 33.545717 33.592607 33.640485
33.689727 33.739690 33.790751 33.842256 33.894583 33.947072 34.000101 34.053010
34.106176 34.158947 34.211696 34.263786 34.315585 34.366474 34.416818 34.466020
34.514439 34.561506 34.607572 34.652101 34.695430 34.737062 34.777319 34.815743
34.852639 34.887591 34.920882 34.952141 34.981628 35.009015 35.034536 35.057909
35.079338 35.098587 35.115827 35.130871 35.143852 35.154631 35.163304 35.169778
35.174112 35.176259 35.176238 35.174050 35.169674 35.163156 35.154438 35.143612
35.130581 35.115485 35.098188 35.078877 35.057383 35.033939 35.008341 34.980870
34.951293 34.919935 34.886537 34.851469 34.814446 34.775885 34.735480 34.693687
34.650183 34.605467 34.559198 34.511912 34.463259 34.413805 34.363190 34.312012
34.259904 34.207485 34.154384 34.101240 34.047678 33.994349 33.940876 33.887918
33.835096 33.783071 33.731463 33.680927 33.631086 33.582582 33.535039 33.489084
33.444342 33.401419 33.359941 33.320488 33.282690 33.247097 33.213342 33.181941
33.152533 33.125597 33.100777 33.078514 33.058459 33.041012 33.025832 33.013279
33.003019 32.995371 32.990011 32.987217 32.986674 32.988621 32.992754 32.999272
33.007881 33.018745 33.031581 33.046515 33.063279 33.081964 33.102315 33.124389
33.147945 33.173010 33.199358 33.226986 33.255683 33.285418 33.315997 33.347363
33.379337 33.411841 33.444713 33.477851 33.511111
33.888889 33.848703 33.808675 33.768988 33.729772 33.691236 33.653479 33.616734
33.581068 33.546734 33.513767 33.482442 33.452756 33.425003 33.399142 33.375486
33.353954 33.334876 33.318127 33.304055 33.292490 33.283795 33.277752 33.274740
33.274492 33.277400 33.283148 33.292139 33.304006 33.319165 33.337195 33.358523
33.382677 33.410092 33.440246 33.473581 33.509525 33.548528 33.589969 33.634304
33.680869 33.730124 33.781362 33.835050 33.890443 33.948010 34.006979 34.067819
34.129732 34.193190 34.257378 34.322768 34.388535 34.455150 34.521786 34.588913
34.655708 34.722640 34.788899 34.854948 34.919999 34.984511 35.047720 35.110078
35.170856 35.230496 35.288307 35.344717 35.399081 35.451811 35.502307 35.550964
35.597234 35.641486 35.683226 35.722795 35.759757 35.794420 35.826405 35.855984
35.882834 35.907192 35.928792 35.947825 35.964087 35.977724 35.988588 35.996778
36.002207 36.004923 36.004897 36.002129 35.996648 35.988403 35.977483 35.963787
35.947463 35.928363 35.906693 35.882259 35.855326 35.825659 35.793578 35.758810
35.721735 35.682042 35.640169 35.595771 35.549344 35.500515 35.449833 35.396902
35.342321 35.285675 35.227612 35.167699 35.106628 35.043954 34.980407 34.915534
34.850097 34.783635 34.716938 34.649539 34.582248 34.514596 34.447405 34.380203
34.313818 34.247778 34.182907 34.118733 34.056070 33.994448 33.934665 33.876249
33.819975 33.765376 33.713195 33.662967 33.615402 33.570038 33.527544 33.487464
33.450423 33.415971 33.384686 33.356125 33.330817 33.308327 33.289133 33.272812
33.259789 33.249650 33.242771 33.238750 33.237911 33.239865 33.244887 33.252601
33.263234 33.276425 33.292353 33.310674 33.331523 33.354571 33.379911 33.407231
33.436583 33.467675 33.500520 33.534844 33.570626 33.607609 33.645741 33.684786
33.724659 33.765146 33.806132 33.847427 33.888889
34.266667 34.218626 34.170792 34.123338 34.076501 34.030419 33.985359 33.941423
33.898902 33.857861 33.818616 33.781188 33.745921 33.712788 33.682157 33.653954
33.628567 33.605874 33.586282 33.569616 33.556303 33.546112 33.539489 33.536144
33.536540 33.540329 33.547989 33.559108 33.574182 33.592735 33.615276 33.641266
33.671227 33.704557 33.741787 33.782255 33.826501 33.873803 33.924708 33.978441
34.035552 34.095215 34.157985 34.222990 34.290790 34.360469 34.432592 34.506210
34.581889 34.658655 34.737075 34.816158 34.896471 34.977017 35.058359 35.139503
35.221011 35.301899 35.382726 35.462527 35.541856 35.619778 35.696838 35.772138
35.846214 35.918211 35.988651 36.056730 36.122953 36.186571 36.248068 36.306755
36.363091 36.416450 36.467260 36.514961 36.559945 36.601720 36.640640 36.676280
36.708947 36.738290 36.764566 36.787491 36.807271 36.823694 36.836908 36.846771
36.853373 36.856644 36.856613 36.853280 36.846615 36.836686 36.823405 36.806912
36.787057 36.764052 36.737692 36.708258 36.675491 36.639745 36.600710 36.558809
36.513689 36.465841 36.414870 36.361337 36.304811 36.245918 36.184198 36.120339
36.053855 35.985494 35.914750 35.842426 35.767998 35.692320 35.614854 35.536499
35.456706 35.376410 35.295057 35.213609 35.131506 35.049732 34.967723 34.886474
34.805420 34.725556 34.646316 34.568691 34.492113 34.417556 34.344455 34.273758
34.204903 34.138804 34.074901 34.014072 33.955760 33.900794 33.848625 33.800031
33.754469 33.712662 33.674074 33.639370 33.608024 33.580641 33.556705 33.536758
33.520297 33.507803 33.498786 33.493665 33.491965 33.494044 33.499442 33.508460
33.520655 33.536269 33.554877 33.576668 33.601237 33.628717 33.658725 33.691346
33.726216 33.763373 33.802475 33.843517 33.886180 33.930417 33.975932 34.022640
34.070271 34.118704 34.167694 34.217087 34.266667
34.644444 34.588659 34.533097 34.478019 34.423609 34.370162 34.317821 34.266913
34.217535 34.170048 34.124499 34.081277 34.040380 34.002225 33.966756 33.934415
33.905088 33.879243 33.856705 33.837967 33.822788 33.811684 33.804348 33.801316
33.802212 33.807591 33.817007 33.831031 33.849145 33.871936 33.898812 33.930375
33.965959 34.006178 34.050295 34.098933 34.151285 34.207983 34.268153 34.332433
34.399887 34.471159 34.545253 34.622819 34.702811 34.785882 34.870941 34.958644
35.047866 35.139264 35.231688 35.325795 35.420421 35.516224 35.612035 35.708509
35.804487 35.900619 35.995765 36.090572 36.183926 36.276467 36.367122 36.456520
36.543635 36.629084 36.711895 36.792669 36.870495 36.945954 37.018202 37.087792
37.153955 37.217209 37.276863 37.333395 37.386194 37.435692 37.481359 37.523580
37.561902 37.596656 37.627473 37.654623 37.677818 37.697265 37.712758 37.724436
37.732177 37.736050 37.736014 37.732069 37.724254 37.712500 37.696928 37.677399
37.654117 37.626875 37.595959 37.561098 37.522661 37.480316 37.434515 37.384870
37.331913 37.275208 37.215367 37.151909 37.085525 37.015695 36.943186 36.867447
36.789315 36.708213 36.625048 36.539217 36.451691 36.361852 36.270725 36.177677
36.083782 35.988399 35.892638 35.795852 35.699181 35.601971 35.505383 35.408759
35.313267 35.218250 35.124870 35.032470 34.942199 34.853401 34.767201 34.682943
34.601719 34.522876 34.447463 34.374829 34.305976 34.240256 34.178613 34.120409
34.066522 34.016321 33.970621 33.928800 33.891601 33.858414 33.829911 33.805495
33.785765 33.770139 33.759143 33.752210 33.749796 33.751353 33.757264 33.767002
33.780881 33.798394 33.819792 33.844587 33.872967 33.904469 33.939221 33.976783
34.017227 34.060138 34.105535 34.153029 34.202589 34.253854 34.306746 34.360932
34.416291 34.472521 34.529458 34.586833 34.644444
35.022222 34.958800 34.895657 34.833028 34.771234 34.710462 34.651072 34.593203
34.537249 34.483297 34.431776 34.382716 34.336578 34.293332 34.253472 34.216901
34.184143 34.155035 34.130127 34.109185 34.092786 34.080621 34.073290 34.070407
34.072595 34.079387 34.091428 34.108166 34.130267 34.157095 34.189330 34.226255
34.268564 34.315453 34.367633 34.424216 34.485921 34.551784 34.622532 34.697124
34.776295 34.858935 34.945782 35.035664 35.129325 35.225536 35.325044 35.426575
35.530878 35.636646 35.744626 35.853489 35.963984 36.074770 36.186593 36.298117
36.410086 36.521176 36.632128 36.741647 36.850465 36.957329 37.062960 37.166155
37.267624 37.366221 37.462642 37.555809 37.646394 37.733396 37.817460 37.897665
37.974623 38.047498 38.116863 38.181972 38.243347 38.300336 38.353409 38.402004
38.446530 38.486521 38.522321 38.553554 38.580496 38.602864 38.620858 38.634289
38.643279 38.647734 38.647693 38.643156 38.634081 38.620563 38.602480 38.580017
38.552976 38.521637 38.485724 38.445612 38.400954 38.352217 38.298991 38.241835
38.180278 38.114973 38.045394 37.972285 37.895075 37.814595 37.730235 37.642911
37.551978 37.458436 37.361610 37.262576 37.160638 37.056939 36.950767 36.843325
36.733889 36.623711 36.512056 36.400219 36.287458 36.175094 36.062382 35.950658
35.839174 35.729271 35.620198 35.513285 35.407784 35.305001 35.204189 35.106622
35.011553 34.920212 34.831857 34.747663 34.666891 34.590656 34.518224 34.450640
34.387180 34.328814 34.274825 34.226107 34.181953 34.143175 34.109080 34.080398
34.056452 34.037885 34.024040 34.015477 34.011556 34.012758 34.018463 34.029073
34.043990 34.063539 34.087147 34.115064 34.146745 34.182368 34.221414 34.263996
34.309623 34.358344 34.409699 34.463678 34.519849 34.578150 34.638180 34.699823
34.762715 34.826691 34.891421 34.956696 35.022222
35.400000 35.329087 35.258466 35.188477 35.119362 35.051505 34.985094 34.920556
34.858020 34.797953 34.740424 34.685936 34.634491 34.586631 34.542286 34.502032
34.465725 34.433974 34.406556 34.384109 34.366328 34.353881 34.346375 34.344505
34.347788 34.356943 34.371397 34.391888 34.417750 34.449742 34.487101 34.530604
34.579390 34.634254 34.694241 34.760157 34.830954 34.907449 34.988507 35.074952
35.165567 35.261182 35.360504 35.464368 35.571413 35.682477 35.796144 35.913252
36.032341 36.154250 36.277485 36.402885 36.528939 36.656484 36.784004 36.912334
37.039970 37.167740 37.294167 37.420074 37.544019 37.666819 37.787084 37.905618
38.021094 38.134301 38.243984 38.350912 38.453911 38.553724 38.649267 38.741247
38.828676 38.912220 38.990991 39.065606 39.135277 39.200566 39.260791 39.316447
39.366959 39.412750 39.453351 39.489108 39.519655 39.545260 39.565659 39.581032
39.591223 39.596322 39.596276 39.591084 39.580798 39.565328 39.544828 39.519118
39.488458 39.452582 39.411855 39.365926 39.315268 39.259451 39.199054 39.133577
39.063702 38.988866 38.909854 38.826048 38.738335 38.646046 38.550169 38.449995
38.346604 38.239254 38.129115 38.015417 37.899413 37.780312 37.659439 37.535989
37.411348 37.284699 37.157483 37.028872 36.900345 36.771070 36.642550 36.513950
36.386783 36.260213 36.135748 36.012551 35.892114 35.773599 35.658465 35.545875
35.437246 35.331742 35.230724 35.133361 35.040946 34.952652 34.869701 34.791270
34.718501 34.650580 34.588559 34.531638 34.480778 34.435191 34.395745 34.361668
34.333733 34.311186 34.294707 34.283561 34.278335 34.278317 34.284001 34.294702
34.310824 34.331708 34.357675 34.388092 34.423199 34.462393 34.505837 34.552958
34.603847 34.657963 34.715328 34.775436 34.838244 34.903280 34.970441 35.039295
35.109681 35.181204 35.253652 35.326671 35.400000
35.777778 35.699512 35.621600 35.544344 35.468150 35.393258 35.320125 35.248929
35.180172 35.113965 35.050854 34.990878 34.934625 34.882059 34.833805 34.789748
34.750549 34.716008 34.686821 34.662697 34.644366 34.631442 34.624686 34.623613
34.629013 34.640299 34.658286 34.682282 34.713126 34.750020 34.793823 34.843629
34.900315 34.962869 35.032181 35.107136 35.188636 35.275463 35.368529 35.466521
35.570358 35.678636 35.792280 35.909808 36.032145 36.157739 36.287519 36.419877
36.555738 36.693453 36.833947 36.975542 37.119162 37.263116 37.408325 37.553103
37.698367 37.842451 37.986268 38.128187 38.269113 38.407467 38.544144 38.677629
38.808802 38.936226 39.060763 39.181060 39.297956 39.410194 39.518580 39.621961
39.721100 39.814956 39.904242 39.988029 40.066972 40.140256 40.208472 40.270921
40.328118 40.379482 40.425445 40.465542 40.500118 40.528824 40.551910 40.569144
40.580676 40.586392 40.586341 40.580522 40.568884 40.551542 40.528344 40.499521
40.464821 40.424592 40.378488 40.326972 40.269611 40.206985 40.138577 40.065084
39.985915 39.901882 39.812329 39.718182 39.618727 39.515003 39.406247 39.293606
39.176276 39.055509 38.930466 38.802497 38.670736 38.536622 38.399270 38.260193
38.118494 37.975752 37.831057 37.686039 37.539784 37.393956 37.247636 37.102510
36.957654 36.814759 36.672899 36.533753 36.396393 36.262473 36.131063 36.003773
35.879677 35.760328 35.644800 35.534579 35.428743 35.328698 35.233529 35.144553
35.060862 34.983681 34.912110 34.847273 34.788285 34.736166 34.690045 34.650838
34.617693 34.591418 34.571183 34.557692 34.550136 34.549118 34.553854 34.564846
34.581340 34.603739 34.631320 34.664393 34.702267 34.745164 34.792426 34.844191
34.899837 34.959424 35.022366 35.088648 35.157723 35.229506 35.303493 35.379532
35.457161 35.536169 35.616136 35.696797 35.777778
36.155556 36.070117 35.985042 35.900756 35.817560 35.735933 35.656110 35.578622
35.503632 35.431723 35.362980 35.298032 35.236884 35.180209 35.127926 35.080749
35.038506 35.001951 34.970815 34.945888 34.926801 34.914377 34.908140 34.908949
34.916213 34.930821 34.952071 34.980875 35.016414 35.059625 35.109571 35.167208
35.231479 35.303360 35.381674 35.467412 35.559282 35.658285 35.763021 35.874497
35.991210 36.114173 36.241790 36.375074 36.512348 36.654626 36.800158 36.949961
37.102228 37.257974 37.415354 37.575379 37.736183 37.898774 38.061281 38.224709
38.387201 38.549757 38.710553 38.870582 39.028068 39.183997 39.336656 39.487020
39.633457 39.776921 39.915874 40.051248 40.181606 40.307849 40.428651 40.544876
40.655316 40.760785 40.860198 40.954311 41.042166 41.124451 41.200335 41.270429
41.334031 41.391665 41.442758 41.487739 41.526164 41.558360 41.584011 41.603338
41.616151 41.622561 41.622505 41.615981 41.603053 41.583607 41.557833 41.525508
41.486947 41.441820 41.390572 41.332771 41.268990 41.198701 41.122606 41.040092
40.951988 40.857604 40.757897 40.652109 40.541322 40.424720 40.303509 40.176824
40.045988 39.910098 39.770588 39.626524 39.479442 39.328385 39.174983 39.018259
38.859923 38.698988 38.537227 38.373643 38.210062 38.045479 37.881750 37.717869
37.555706 37.394251 37.235369 37.078048 36.924134 36.772611 36.625287 36.481145
36.341937 36.206648 36.076960 35.951861 35.832949 35.719216 35.612168 35.510802
35.416524 35.328338 35.247541 35.173151 35.106350 35.046171 34.993680 34.947927
34.909862 34.878554 34.854839 34.837808 34.828181 34.825077 34.829102 34.839406
34.856486 34.879522 34.908906 34.943855 34.984659 35.030569 35.081784 35.137591
35.198098 35.262635 35.331222 35.403233 35.478609 35.556766 35.637571 35.720488
35.805313 35.891557 35.978953 36.067062 36.155556
36.533333 36.440889 36.348880 36.257674 36.167771 36.079466 35.993317 35.909547
35.828767 35.751119 35.677268 35.607269 35.541837 35.480936 35.425328 35.374879
35.330396 35.291642 35.259465 35.233519 35.214693 35.202526 35.197942 35.200362
35.210744 35.228383 35.254269 35.287570 35.329302 35.378503 35.436213 35.501340
35.574941 35.655795 35.744976 35.841133 35.945353 36.056162 36.174653 36.299236
36.431010 36.568276 36.712135 36.860790 37.015344 37.173912 37.337598 37.504448
37.675562 37.848934 38.025661 38.203703 38.384154 38.564959 38.747208 38.928853
39.110978 39.291561 39.471683 39.649365 39.825681 39.998717 40.169535 40.336302
40.500066 40.659089 40.814400 40.964368 41.109992 41.249762 41.384641 41.513246
41.636492 41.753129 41.864015 41.968038 42.065988 42.156892 42.241461 42.318862
42.389717 42.453334 42.510237 42.559871 42.602655 42.638173 42.666729 42.688047
42.702310 42.709381 42.709319 42.702125 42.687737 42.666290 42.637599 42.601940
42.559008 42.509215 42.452144 42.388345 42.317294 42.239680 42.154882 42.063728
41.965506 41.861188 41.749981 41.632996 41.509371 41.380356 41.245032 41.104779
40.958633 40.808102 40.652185 40.492506 40.328039 40.160516 39.988888 39.814985
39.637742 39.459071 39.277896 39.096192 38.912878 38.729974 38.546392 38.364180
38.182246 38.002644 37.824278 37.649189 37.476278 37.307552 37.141912 36.981310
36.824647 36.673806 36.527688 36.388092 36.253921 36.126876 36.005864 35.892480
35.785635 35.686809 35.594922 35.511333 35.434975 35.367079 35.306595 35.254626
35.210142 35.174117 35.145544 35.125271 35.112316 35.107403 35.109580 35.119449
35.136092 35.159991 35.190267 35.227288 35.270213 35.319305 35.373761 35.433744
35.498494 35.568078 35.641781 35.719579 35.800806 35.885354 35.972604 36.062371
36.154087 36.247493 36.342076 36.437508 36.533333
36.911111 36.811875 36.713081 36.615240 36.518718 36.424094 36.331655 36.242040
36.155453 36.072591 35.993567 35.919135 35.849310 35.784900 35.725816 35.672917
35.626005 35.585986 35.552544 35.526631 35.507812 35.497076 35.493861 35.499195
35.512384 35.534489 35.564679 35.604046 35.651618 35.708515 35.773620 35.848076
35.930625 36.022425 36.122079 36.230758 36.346925 36.471762 36.603600 36.743627
36.890048 37.044054 37.203737 37.370288 37.541698 37.719154 37.900564 38.087112
38.276637 38.470319 38.665950 38.864706 39.064351 39.266056 39.467583 39.670098
39.871380 40.072590 40.271547 40.469406 40.664048 40.856619 41.045079 41.230564
41.411131 41.587899 41.759038 41.925641 42.086004 42.241189 42.389626 42.532332
42.667881 42.797237 42.919120 43.034427 43.142030 43.242746 43.335601 43.421321
43.499083 43.569511 43.631935 43.686867 43.733788 43.773089 43.804399 43.827984
43.843621 43.851443 43.851377 43.843421 43.827648 43.803923 43.772468 43.733015
43.685934 43.630831 43.568223 43.497598 43.419624 43.333675 43.240571 43.139584
43.031687 42.916061 42.793830 42.664097 42.528138 42.384987 42.236068 42.080361
41.919433 41.752220 41.580423 41.402947 41.221617 41.035313 40.845976 40.652465
40.456819 40.257888 40.057791 39.855367 39.652798 39.448918 39.245948 39.042718
38.841466 38.641021 38.443615 38.248072 38.056602 37.868022 37.684494 37.504836
37.331141 37.162223 37.000093 36.843564 36.694547 36.551855 36.417288 36.289662
36.170653 36.059085 35.956503 35.861742 35.776211 35.698757 35.630652 35.570761
35.520214 35.477901 35.444809 35.419855 35.403891 35.395862 35.396484 35.404738
35.421210 35.444916 35.476318 35.514474 35.559723 35.611167 35.669033 35.732467
35.801590 35.875595 35.954502 36.037554 36.124676 36.215166 36.308858 36.405105
36.503659 36.603930 36.705593 36.808120 36.911111
37.288889 37.183056 37.077744 36.973395 36.870601 36.769722 36.671422 36.575970
36.484096 36.395973 36.312393 36.233430 36.159934 36.091870 36.030144 35.974607
35.926217 35.884704 35.851075 35.824930 35.807323 35.797720 35.797217 35.805139
35.822619 35.848837 35.884960 35.930017 35.985206 36.049402 36.123827 36.207201
36.300767 36.403090 36.515429 36.636196 36.766659 36.905084 37.052747 37.207770
37.371433 37.541728 37.719933 37.903925 38.094976 38.290861 38.492849 38.698630
38.909466 39.122987 39.340447 39.559434 39.781200 40.003313 40.227020 40.449899
40.673191 40.894506 41.115081 41.332580 41.548235 41.759790 41.968464 42.172102
42.371910 42.565849 42.755103 42.937765 43.114992 43.285018 43.448961 43.605209
43.754828 43.896365 44.030821 44.156906 44.275545 44.385611 44.487939 44.581566
44.667224 44.744113 44.812850 44.872799 44.924450 44.967327 45.001787 45.027513
45.044721 45.053254 45.053183 45.044506 45.027152 45.001276 44.966660 44.923619
44.871796 44.811663 44.742729 44.665628 44.579742 44.485867 44.383272 44.272915
44.153959 44.027530 43.892700 43.750758 43.600698 43.443971 43.279508 43.108920
42.931086 42.747767 42.557804 42.363102 42.162473 41.957953 41.748334 41.535767
41.319032 41.100378 40.878575 40.655954 40.431274 40.206926 39.981664 39.757909
39.534414 39.313607 39.094235 38.878712 38.665780 38.457811 38.253543 38.055288
37.861776 37.675236 37.494397 37.321386 37.154929 36.997037 36.846437 36.705011
36.571488 36.447614 36.332124 36.226617 36.129841 36.043245 35.965593 35.898180
35.839791 35.791571 35.752328 35.723055 35.702592 35.691783 35.689502 35.696450
35.711538 35.735329 35.766776 35.806307 35.852923 35.906924 35.967359 36.034411
36.107175 36.185723 36.269206 36.357588 36.450074 36.546531 36.646223 36.748923
36.853955 36.961007 37.069468 37.178943 37.288889
37.666667 37.554484 37.442825 37.332295 37.223330 37.116613 37.012487 36.911707
36.814519 36.721747 36.633529 36.550756 36.473453 36.402572 36.338019 36.280805
36.230708 36.188792 36.154704 36.129557 36.112854 36.105759 36.107625 36.119658
36.141057 36.173066 36.214723 36.267307 36.329691 36.403182 36.486486 36.580934
36.685063 36.800220 36.924779 37.060096 37.204382 37.359002 37.522008 37.694769
37.875189 38.064634 38.260874 38.465270 38.675472 38.892834 39.114905 39.343030
39.574678 39.811186 40.049967 40.292350 40.535716 40.781387 41.026741 41.273095
41.517848 41.762311 42.003936 42.244027 42.480110 42.713484 42.941771 43.166261
43.384695 43.598347 43.805094 44.006186 44.199652 44.386706 44.565539 44.737321
44.900411 45.055918 45.202378 45.340825 45.469969 45.590759 45.702080 45.804776
45.897912 45.982213 46.056917 46.122620 46.178734 46.225714 46.263141 46.291325
46.310013 46.319361 46.319284 46.309783 46.290939 46.262595 46.225001 46.177845
46.121547 46.055647 45.980732 45.896205 45.802825 45.699864 45.588256 45.467155
45.337672 45.198857 45.051998 44.896055 44.732493 44.560198 44.380809 44.193153
43.999036 43.797241 43.589734 43.375265 43.155951 42.930517 42.701217 42.466759
42.229518 41.988191 41.745250 41.499386 41.253147 41.005219 40.758199 40.510770
40.265550 40.021218 39.780389 39.541735 39.307842 39.077374 38.852861 38.632959
38.420121 38.212996 38.013935 37.821582 37.638169 37.462337 37.296185 37.138351
36.990791 36.852146 36.724216 36.605650 36.498088 36.400192 36.313437 36.236504
36.170701 36.114734 36.069746 36.034470 36.009891 35.994773 35.989943 35.994204
36.008231 36.030870 36.062647 36.102456 36.150685 36.206276 36.269485 36.339307
36.415872 36.498233 36.586402 36.679490 36.777399 36.879300 36.984995 37.093717
37.205171 37.318660 37.433797 37.549956 37.666667
38.044444 37.926133 37.808432 37.691863 37.577123 37.464636 37.355178 37.249072
37.147171 37.049686 36.957542 36.870836 36.790560 36.716685 36.650268 36.591148
36.540443 36.497851 36.464546 36.440079 36.425677 36.420732 36.426521 36.442275
36.469310 36.506688 36.555766 36.615429 36.687065 36.769383 36.863795 36.968830
37.085920 37.213413 37.352756 37.502116 37.662949 37.833249 38.014474 38.204454
38.404642 38.612716 38.830123 39.054401 39.286988 39.525302 39.770770 40.020710
40.276538 40.535499 40.798997 41.064230 41.332593 41.601264 41.871631 42.140884
42.410405 42.677424 42.943318 43.205387 43.465004 43.719562 43.970429 44.215119
44.454986 44.687685 44.914552 45.133401 45.345540 45.548951 45.744903 45.931559
46.110134 46.278978 46.439235 46.589444 46.730665 46.861627 46.983288 47.094564