# vtk DataFile Version 3.0
Steady-state temperature (Jacobi)
ASCII
DATASET STRUCTURED_POINTS
DIMENSIONS 181 181 1
ORIGIN 0.0 0.0 0.0
SPACING 0.05 0.05 1.0
POINT_DATA 32761
SCALARS Temperature float 1
LOOKUP_TABLE default
32.000000 32.000000 32.000000 32.000000 32.000000 32.000000 32.000000 32.000000
32.000000 32.000000 32.000000 32.000000 32.000000 32.000000 32.000000 32.000000
32.000000 32.000000 32.000000 32.000000 32.000000 32.000000 32.000000 32.000000
32.000000 32.000000 32.000000 32.000000 32.000000 32.000000 32.000000 32.000000
32.000000 32.000000 32.000000 32.000000 32.000000 32.000000 32.000000 32.000000
32.000000 32.000000 32.000000 32.000000 32.000000 32.000000 32.000000 32.000000
32.000000 32.000000 32.000000 32.000000 32.000000 32.000000 32.000000 32.000000
32.000000 32.000000 32.000000 32.000000 32.000000 32.000000 32.000000 32.000000
32.000000 32.000000 32.000000 32.000000 32.000000 32.000000 32.000000 32.000000
32.000000 32.000000 32.000000 32.000000 32.000000 32.000000 32.000000 32.000000
32.000000 32.000000 32.000000 32.000000 32.000000 32.000000 32.000000 32.000000
32.000000 32.000000 32.000000 32.000000 32.000000 32.000000 32.000000 32.000000
32.000000 32.000000 32.000000 32.000000 32.000000 32.000000 32.000000 32.000000
32.000000 32.000000 32.000000 32.000000 32.000000 32.000000 32.000000 32.000000
32.000000 32.000000 32.000000 32.000000 32.000000 32.000000 32.000000 32.000000
32.000000 32.000000 32.000000 32.000000 32.000000 32.000000 32.000000 32.000000
32.000000 32.000000 32.000000 32.000000 32.000000 32.000000 32.000000 32.000000
32.000000 32.000000 32.000000 32.000000 32.000000 32.000000 32.000000 32.000000
32.000000 32.000000 32.000000 32.000000 32.000000 32.000000 32.000000 32.000000
32.000000 32.000000 32.000000 32.000000 32.000000 32.000000 32.000000 32.000000
32.000000 32.000000 32.000000 32.000000 32.000000 32.000000 32.000000 32.000000
32.000000 32.000000 32.000000 32.000000 32.000000 32.000000 32.000000 32.000000
32.000000 32.000000 32.000000 32.000000 32.000000
32.377778 32.403058 32.428348 32.453660 32.479003 32.504388 32.529824 32.555323
32.580890 32.606540 32.632276 32.658111 32.684047 32.710098 32.736264 32.762557
32.788975 32.815530 32.842217 32.869048 32.896016 32.923130 32.950382 32.977779
33.005309 33.032981 33.060778 33.088706 33.116748 33.144908 33.173164 33.201520
33.229951 33.258458 33.287015 33.315620 33.344244 33.372884 33.401509 33.430113
33.458663 33.487153 33.515546 33.543834 33.571980 33.599974 33.627779 33.655382
33.682745 33.709857 33.736676 33.763192 33.789364 33.815180 33.840600 33.865613
33.890180 33.914288 33.937901 33.961007 33.983571 34.005582 34.027007 34.047837
34.068039 34.087607 34.106511 34.124744 34.142280 34.159113 34.175221 34.190598
34.205223 34.219095 34.232193 34.244517 34.256050 34.266792 34.276728 34.285859
34.294174 34.301672 34.308345 34.314192 34.319208 34.323393 34.326741 34.329254
34.330929 34.331765 34.331763 34.330921 34.329242 34.326724 34.323371 34.319183
34.314165 34.308315 34.301642 34.294144 34.285831 34.276704 34.266772 34.256037
34.244512 34.232200 34.219114 34.205258 34.190651 34.175295 34.159212 34.142406
34.124901 34.106703 34.087838 34.068314 34.048159 34.027382 34.006014 33.984065
33.961569 33.938536 33.915003 33.890981 33.866507 33.841593 33.816279 33.790578
33.764528 33.738142 33.711461 33.684497 33.657291 33.629853 33.602224 33.574416
33.546466 33.518385 33.490210 33.461950 33.433641 33.405290 33.376931 33.348569
33.320237 33.291937 33.263698 33.235524 33.207439 33.179445 33.151564 33.123795
33.096160 33.068652 33.041293 33.014074 32.987012 32.960100 32.933350 32.906753
32.880320 32.854039 32.827919 32.801948 32.776130 32.750454 32.724922 32.699520
32.674249 32.649096 32.624057 32.599120 32.574281 32.549525 32.524847 32.500233
32.475676 32.451161 32.426682 32.402224 32.377778
32.755556 32.806123 32.856713 32.907343 32.958038 33.008814 33.059697 33.110699
33.161847 33.213150 33.264636 33.316310 33.368199 33.420304 33.472653 33.525243
33.578098 33.631211 33.684607 33.738274 33.792232 33.846465 33.900992 33.955792
34.010880 34.066228 34.121851 34.177714 34.233829 34.290156 34.346702 34.403421
34.460318 34.517342 34.574492 34.631712 34.688999 34.746290 34.803580 34.860801
34.917942 34.974934 35.031762 35.088352 35.144687 35.200690 35.256342 35.311563
35.366332 35.420570 35.474251 35.527297 35.579683 35.631329 35.682211 35.732250
35.781422 35.829651 35.876913 35.923137 35.968300 36.012333 36.055215 36.096883
36.137318 36.176460 36.214294 36.250766 36.285863 36.319534 36.351770 36.382528
36.411798 36.439543 36.465756 36.490405 36.513485 36.534968 36.554853 36.573115
36.589753 36.604748 36.618100 36.629795 36.639832 36.648201 36.654901 36.659927
36.663278 36.664951 36.664945 36.663262 36.659902 36.654867 36.648159 36.639783
36.629740 36.618042 36.604688 36.589694 36.573059 36.554803 36.534929 36.513459
36.490396 36.465769 36.439582 36.411868 36.382635 36.351920 36.319733 36.286116
36.251083 36.214680 36.176924 36.137868 36.097528 36.055965 36.013197 35.969289
35.924262 35.878185 35.831082 35.783024 35.734038 35.684197 35.633529 35.582111
35.529970 35.477184 35.423780 35.369837 35.315381 35.260491 35.205191 35.149559
35.093617 35.037441 34.981049 34.924516 34.867857 34.811143 34.754385 34.697651
34.640947 34.584337 34.527824 34.471465 34.415261 34.359264 34.303470 34.247925
34.192622 34.137602 34.082853 34.028411 33.974260 33.920431 33.866906 33.813709
33.760819 33.708254 33.655992 33.604047 33.552392 33.501037 33.449954 33.399148
33.348590 33.298280 33.248189 33.198311 33.148620 33.099104 33.049736 33.000504
32.951379 32.902345 32.853377 32.804455 32.755556
33.133333 33.209205 33.285107 33.361074 33.437133 33.513321 33.589660 33.666190
33.742927 33.819910 33.897154 33.974697 34.052545 34.130739 34.209278 34.288201
34.367500 34.447213 34.527325 34.607870 34.688827 34.770227 34.852040 34.934293
35.016949 35.100030 35.183491 35.267350 35.351551 35.436109 35.520959 35.606110
35.691491 35.777102 35.862865 35.948776 36.034746 36.120768 36.206746 36.292664
36.378422 36.463999 36.549289 36.634266 36.718818 36.802916 36.886444 36.969369
37.051574 37.133023 37.213596 37.293257 37.371885 37.449444 37.525814 37.600959
37.674762 37.747188 37.818125 37.887538 37.955321 38.021442 38.085801 38.148369
38.209053 38.267826 38.324605 38.379366 38.432034 38.482588 38.530961 38.577139
38.621059 38.662711 38.702043 38.739045 38.773674 38.805924 38.835757 38.863170
38.888131 38.910640 38.930671 38.948225 38.963282 38.975843 38.985895 38.993438
38.998465 39.000975 39.000968 38.998442 38.993401 38.985844 38.975780 38.963209
38.948143 38.930584 38.910551 38.888043 38.863087 38.835684 38.805866 38.773636
38.739034 38.702063 38.662771 38.621166 38.577301 38.531187 38.482887 38.432416
38.379842 38.325185 38.268524 38.209879 38.149338 38.086927 38.022740 37.956806
37.889226 37.820034 37.749336 37.677168 37.603642 37.528796 37.452746 37.375530
37.297267 37.217997 37.137840 37.056833 36.975098 36.892670 36.809669 36.726128
36.642165 36.557809 36.473174 36.388285 36.303251 36.218093 36.132913 36.047727
35.962631 35.877635 35.792828 35.708213 35.623873 35.539805 35.456083 35.372697
35.289715 35.207120 35.124972 35.043249 34.962000 34.881202 34.800894 34.721047
34.641693 34.562800 34.484390 34.406429 34.328932 34.251860 34.175221 34.098976
34.023126 33.947628 33.872478 33.797634 33.723082 33.648783 33.574717 33.500845
33.427142 33.353571 33.280103 33.206701 33.133333
33.511111 33.612308 33.713548 33.814871 33.916323 34.017939 34.119769 34.221840
34.324203 34.426880 34.529924 34.633347 34.737202 34.841495 34.946276 35.051543
35.157344 35.263667 35.370558 35.477994 35.586019 35.694598 35.803771 35.913493
36.023797 36.134628 36.246014 36.357886 36.470267 36.583077 36.696331 36.809939
36.923907 37.038135 37.152620 37.267252 37.382022 37.496807 37.611592 37.726245
37.840743 37.954946 38.068823 38.182228 38.295125 38.407361 38.518895 38.629569
38.739338 38.848043 38.955635 39.061955 39.166951 39.270465 39.372445 39.472736
39.571288 39.667949 39.762670 39.855308 39.945815 40.034056 40.119987 40.203482
40.284503 40.362931 40.438733 40.511803 40.582113 40.649565 40.714138 40.775746
40.834371 40.889938 40.942435 40.991796 41.038013 41.081031 41.120845 41.157409
41.190720 41.220741 41.247472 41.270883 41.290975 41.307728 41.321140 41.331200
41.337907 41.341256 41.341246 41.337877 41.331150 41.321073 41.307644 41.290878
41.270775 41.247357 41.220623 41.190604 41.157300 41.120750 41.080955 41.037964
40.991782 40.942464 40.890020 40.834516 40.775964 40.714442 40.649967 40.582625
40.512440 40.439511 40.363863 40.285608 40.204778 40.121492 40.035789 39.947798
39.857562 39.765219 39.670816 39.574499 39.476318 39.376424 39.274871 39.171814
39.067306 38.961507 38.854469 38.746354 38.637210 38.527200 38.416369 38.304877
38.192765 38.080188 37.967183 37.853898 37.740366 37.626727 37.513005 37.399334
37.285730 37.172318 37.059106 36.946209 36.833628 36.721465 36.609715 36.498468
36.387712 36.277526 36.167889 36.058871 35.950443 35.842662 35.735495 35.628988
35.523100 35.417868 35.313246 35.209261 35.105862 35.003065 34.900817 34.799125
34.697934 34.597240 34.496988 34.397166 34.297717 34.198621 34.099824 34.001298
33.902989 33.804863 33.706869 33.608968 33.511111
33.888889 34.015442 34.142048 34.268762 34.395631 34.522717 34.650057 34.777716
34.905724 35.034147 35.163006 35.292369 35.422245 35.552702 35.683740 35.815423
35.947740 36.080753 36.214438 36.348853 36.483962 36.619816 36.756367 36.893661
37.031635 37.170327 37.309660 37.449666 37.590254 37.731444 37.873133 38.015333
38.157924 38.300910 38.444157 38.587660 38.731273 38.874978 39.018618 39.162167
39.305456 39.448450 39.590970 39.732973 39.874272 40.014818 40.154416 40.293010
40.430404 40.566537 40.701208 40.834355 40.965777 41.095410 41.223058 41.348654
41.472007 41.593054 41.711610 41.827615 41.940891 42.051385 42.158929 42.263474
42.364865 42.463059 42.557913 42.649392 42.737366 42.821805 42.902595 42.979711
43.053053 43.122602 43.188271 43.250048 43.307857 43.361691 43.411488 43.457241
43.498901 43.536466 43.569894 43.599186 43.624312 43.645272 43.662044 43.674630
43.683017 43.687206 43.687194 43.682979 43.674568 43.661960 43.645168 43.624192
43.599054 43.569753 43.536321 43.498759 43.457108 43.411371 43.361600 43.307799
43.250034 43.188311 43.122708 43.053238 42.979988 42.902979 42.822311 42.738011
42.650193 42.558889 42.464229 42.366251 42.265098 42.160814 42.053557 41.943375
41.830438 41.714802 41.596644 41.476027 41.353137 41.228037 41.100924 40.971861
40.841049 40.708553 40.574575 40.439179 40.302568 40.164803 40.026084 39.886467
39.746150 39.605182 39.463753 39.321906 39.179825 39.037542 38.895232 38.752919
38.610765 38.468786 38.327132 38.185809 38.044952 37.904558 37.764750 37.625514
37.486958 37.349060 37.211914 37.075487 36.939860 36.804992 36.670950 36.537686
36.405250 36.273591 36.142745 36.012653 35.883341 35.754745 35.626878 35.499672
35.373128 35.247178 35.121811 34.996957 34.872595 34.748657 34.625111 34.501889
34.378953 34.256237 34.133694 34.011263 33.888889
34.266667 34.418613 34.570625 34.722762 34.875096 35.027678 35.180583 35.333853
35.487567 35.641757 35.796501 35.951822 36.107797 36.264436 36.421817 36.579934
36.738862 36.898582 37.059165 37.220578 37.382884 37.546035 37.710088 37.874978
38.040755 38.207335 38.374761 38.542932 38.711880 38.881488 39.051775 39.222608
39.393995 39.565786 39.737979 39.910405 40.083051 40.255734 40.428427 40.600935
40.773220 40.945072 41.116444 41.287116 41.457031 41.625960 41.793837 41.960428
42.125661 42.289297 42.451260 42.611309 42.769366 42.925192 43.078708 43.229680
43.378028 43.523527 43.666101 43.805533 43.941751 44.074550 44.203867 44.329508
44.451416 44.569414 44.683453 44.793372 44.899129 45.000579 45.097689 45.190331
45.278480 45.362023 45.440942 45.515141 45.584608 45.649261 45.709093 45.764037
45.814088 45.859195 45.899354 45.934525 45.964708 45.989872 46.010019 46.025130
46.035205 46.040234 46.040219 46.035160 46.025057 46.009921 45.989750 45.964566
45.934367 45.899187 45.859023 45.813921 45.763880 45.708957 45.649155 45.584543
45.515129 45.440996 45.362156 45.278708 45.190670 45.098156 45.001192 44.899909
44.794340 44.684631 44.570826 44.453087 44.331464 44.206137 44.077164 43.944739
43.808928 43.669939 43.527843 43.382860 43.235067 43.084692 42.931816 42.776675
42.619350 42.460082 42.298951 42.136200 41.971906 41.806311 41.639488 41.471674
41.302937 41.133508 40.963444 40.792970 40.622133 40.451146 40.280047 40.109037
39.938140 39.767545 39.597264 39.427469 39.258161 39.089497 38.921466 38.754206
38.587695 38.422056 38.257254 38.093394 37.930432 37.768457 37.607414 37.447374
37.288275 37.130172 36.972995 36.816784 36.661462 36.507053 36.353477 36.200743
36.048768 35.897546 35.746994 35.597091 35.447755 35.298954 35.150604 35.002665
34.855054 34.707720 34.560587 34.413593 34.266667
34.644444 34.821829 34.999288 35.176901 35.354733 35.532872 35.711371 35.890322
36.069768 36.249802 36.430455 36.611821 36.793917 36.976835 37.160578 37.345236
37.530796 37.717343 37.904846 38.093386 38.282914 38.473503 38.665085 38.857725
39.051335 39.245970 39.441524 39.638038 39.835388 40.033602 40.232534 40.432202
40.632439 40.833249 41.034446 41.236020 41.437765 41.639659 41.841479 42.043187
42.244546 42.445506 42.645814 42.845409 43.044027 43.241596 43.437844 43.632689
43.825853 44.017249 44.206596 44.393801 44.578583 44.760849 44.940321 45.116905
45.290332 45.460510 45.627178 45.790250 45.949479 46.104784 46.255933 46.402853
46.545330 46.683300 46.816566 46.945074 47.068647 47.187241 47.300696 47.408980
47.511953 47.609590 47.701769 47.788475 47.869604 47.945146 48.015015 48.079205
48.137648 48.190340 48.237228 48.278311 48.313548 48.342941 48.366461 48.384109
48.395871 48.401745 48.401728 48.395819 48.384026 48.366347 48.342800 48.313385
48.278130 48.237036 48.190145 48.137457 48.079028 48.014861 47.945028 47.869534
47.788467 47.701839 47.609752 47.512226 47.409383 47.301249 47.187965 47.069566
46.946212 46.817949 46.684957 46.547289 46.405146 46.258591 46.107843 45.952975
45.794222 45.631665 45.465555 45.295980 45.123202 44.947313 44.768588 44.587122
44.403194 44.216900 44.028524 43.838160 43.646091 43.452408 43.257391 43.061122
42.863879 42.665733 42.466952 42.267600 42.067931 41.867997 41.668039 41.468095
41.268392 41.068953 40.869988 40.671506 40.473698 40.276559 40.080261 39.884784
39.690281 39.496719 39.304230 39.112768 38.922445 38.733205 38.545138 38.358178
38.172396 37.987717 37.804192 37.621739 37.440391 37.260059 37.080759 36.902398
36.724975 36.548392 36.372636 36.197606 36.023274 35.849540 35.676362 35.503643
35.331328 35.159324 34.987565 34.815964 34.644444
35.022222 35.225095 35.428056 35.631187 35.834584 36.038315 36.242484 36.447147
36.652409 36.858316 37.064972 37.272409 37.480731 37.689952 37.900177 38.111400
38.323723 38.537120 38.751687 38.967381 39.184288 39.402344 39.621626 39.842049
40.063678 40.286406 40.510287 40.735189 40.961154 41.188026 41.415832 41.644393
41.873722 42.103616 42.334072 42.564867 42.795979 43.027165 43.258389 43.489387
43.720107 43.950269 44.179807 44.408426 44.636046 44.862362 45.087281 45.310489
45.531886 45.751151 45.968180 46.182649 46.394448 46.603259 46.808971 47.011269
47.210045 47.404995 47.596015 47.782814 47.965295 48.143181 48.316386 48.484653
48.647902 48.805899 48.958575 49.105718 49.247270 49.383041 49.512986 49.636936
49.754858 49.866604 49.972150 50.071371 50.164251 50.250685 50.330663 50.404100
50.470991 50.531266 50.584926 50.631917 50.672241 50.705859 50.732772 50.752957
50.766415 50.773133 50.773114 50.766357 50.752863 50.732645 50.705701 50.672058
50.631715 50.584712 50.531048 50.470778 50.403903 50.330495 50.250557 50.164179
50.071370 49.972238 49.866798 49.755180 49.637407 49.513629 49.383880 49.248332
49.107030 48.960169 48.807804 48.650154 48.487285 48.319438 48.146691 47.969305
47.787367 47.601159 47.410776 47.216514 47.018478 46.816977 46.612119 46.404222
46.193398 45.979971 45.764052 45.545966 45.325821 45.103941 44.880428 44.655600
44.429550 44.202588 43.974795 43.746471 43.517681 43.288712 43.059616 42.830660
42.601881 42.373528 42.145622 41.918390 41.691836 41.466168 41.241371 41.017631
40.794918 40.573394 40.353014 40.133916 39.916043 39.699509 39.484244 39.270340
39.057714 38.846437 38.636418 38.427704 38.220196 38.013923 37.808778 37.604770
37.401790 37.199827 36.998769 36.798590 36.599175 36.400483 36.202400 36.004871
35.807787 35.611076 35.414635 35.218384 35.022222
35.400000 35.628420 35.856935 36.085653 36.314657 36.544061 36.773936 37.004401
37.235513 37.467393 37.700082 37.933703 38.168280 38.403931 38.640663 38.878593
39.117704 39.358108 39.599767 39.842785 40.087102 40.332811 40.579829 40.828237
41.077926 41.328966 41.581221 41.834746 42.089380 42.345162 42.601903 42.859626
43.118117 43.377379 43.637175 43.897488 44.158056 44.418846 44.679572 44.940181
45.200369 45.460066 45.718949 45.976931 46.233673 46.489078 46.742793 46.994709
47.244465 47.491944 47.736781 47.978852 48.217794 48.453480 48.685550 48.913880
49.138119 49.358145 49.573622 49.784433 49.990259 50.190993 50.386336 50.576192
50.760284 50.938529 51.110673 51.276648 51.436225 51.589348 51.735815 51.875583
52.008475 52.134460 52.253385 52.365231 52.469868 52.567284 52.657373 52.740128
52.815465 52.883380 52.943808 52.996750 53.042155 53.080027 53.110330 53.133068
53.148221 53.155789 53.155768 53.148157 53.132965 53.110189 53.079853 53.041954
52.996528 52.943573 52.883142 52.815233 52.739916 52.657192 52.567151 52.469797
52.365241 52.253496 52.134691 52.008849 51.876125 51.736551 51.590306 51.437433
51.278139 51.112481 50.940688 50.762833 50.579171 50.389786 50.194959 49.994787
49.789573 49.579425 49.364667 49.145415 48.922010 48.694575 48.463465 48.228807
47.990965 47.750065 47.506476 47.260324 47.011977 46.761555 46.509422 46.255690
46.000715 45.744597 45.487679 45.230049 44.972035 44.713706 44.455375 44.197093
43.939152 43.681585 43.424660 43.168392 42.913026 42.658557 42.405204 42.152945
41.901972 41.652246 41.403934 41.156977 40.911519 40.667485 40.424992 40.183953
39.944458 39.706409 39.469872 39.234738 39.001050 38.768691 38.537681 38.307897
38.079339 37.851879 37.625497 37.400064 37.175540 36.951798 36.728780 36.506361
36.284469 36.062983 35.841817 35.620855 35.400000
35.777778 36.031805 36.285946 36.540302 36.794995 37.050115 37.305790 37.562095
37.819163 38.077050 38.335893 38.595729 38.856693 39.118803 39.382193 39.646856
39.912922 40.180361 40.449295 40.719669 40.991596 41.264995 41.539965 41.816400
42.094385 42.373784 42.654668 42.936872 43.220448 43.505204 43.791173 44.078132
44.366095 44.654810 44.944271 45.234199 45.524566 45.815065 46.105649 46.395988
46.686012 46.975370 47.263974 47.551453 47.837703 48.122337 48.405237 48.686004
48.964508 49.240345 49.513376 49.783193 50.049654 50.312355 50.571151 50.825646
51.075699 51.320926 51.561190 51.796127 52.025610 52.249292 52.467060 52.678592
52.883788 53.082353 53.274200 53.459063 53.636873 53.807391 53.970562 54.126178
54.274198 54.414440 54.546878 54.671358 54.787862 54.896262 54.996551 55.088623
55.172475 55.248026 55.315276 55.374162 55.424688 55.466808 55.500527 55.525814
55.542673 55.551090 55.551067 55.542604 55.525701 55.500374 55.466619 55.424470
55.373921 55.315022 55.247768 55.172227 55.088396 54.996361 54.896125 54.787796
54.671382 54.547015 54.414712 54.274629 54.126797 53.971397 53.808472 53.638234
53.460738 53.276227 53.084771 52.886640 52.681921 52.470914 52.253719 52.030662
51.801859 51.567660 51.328193 51.083827 50.834701 50.581202 50.323473 50.061915
49.796674 49.528159 49.256515 48.982153 48.705214 48.426107 48.144965 47.862191
47.577904 47.292497 47.006075 46.719015 46.431405 46.143603 45.855679 45.567968
45.280520 44.993645 44.707373 44.421987 44.137495 43.854155 43.571950 43.291111
43.011603 42.733624 42.457120 42.182263 41.908979 41.637409 41.367466 41.099262
40.832694 40.567848 40.304607 40.043030 39.782992 39.524526 39.267497 39.011916
38.757642 38.504662 38.252833 38.002120 37.752379 37.503556 37.255507 37.008162
36.761381 36.515074 36.269111 36.023387 35.777778
36.155556 36.435262 36.715088 36.995165 37.275600 37.556531 37.838051 38.120305
38.403367 38.687385 38.972415 39.258604 39.545988 39.834713 40.124789 40.416360
40.709410 41.004077 41.300317 41.598258 41.897830 42.199149 42.502114 42.806826
43.113154 43.421184 43.730754 44.041928 44.354514 44.668557 44.983830 45.300358
45.617881 45.936402 46.255630 46.575544 46.895822 47.216419 47.536987 47.857457
48.177454 48.496888 48.815360 49.132761 49.448673 49.762968 50.075213 50.385265
50.692681 50.997307 51.298695 51.596685 51.890826 52.180957 52.466633 52.747693
53.023706 53.294514 53.559702 53.819122 54.072382 54.319345 54.559643 54.793156
55.019545 55.238704 55.450326 55.654324 55.850421 56.038549 56.218464 56.390114
56.553287 56.707946 56.853909 56.991156 57.119531 57.239025 57.349511 57.450986
57.543349 57.626602 57.700666 57.765546 57.821185 57.867588 57.904715 57.932572
57.951135 57.960407 57.960382 57.951061 57.932451 57.904551 57.867386 57.820951
57.765289 57.700395 57.626329 57.543086 57.450749 57.349315 57.238889 57.119474
56.991199 56.854076 56.708262 56.553780 56.390814 56.219402 56.039760 55.851939
55.656189 55.452578 55.241388 55.022705 54.796843 54.563906 54.324240 54.077964
53.825454 53.566844 53.302534 53.032673 52.757681 52.477715 52.193214 51.904339
51.611541 51.314984 51.015122 50.712117 50.406424 50.098198 49.787888 49.475638
49.161887 48.846764 48.530694 48.213786 47.896447 47.578766 47.261126 46.943595
46.626529 46.309974 45.994256 45.679397 45.365695 45.053146 44.742018 44.432283
44.124176 43.817649 43.512903 43.209869 42.908717 42.609357 42.311929 42.016325
41.722655 41.430795 41.140825 40.852610 40.566199 40.281448 39.998379 39.716840
39.436827 39.158184 38.880882 38.604763 38.329774 38.055758 37.782644 37.510275
37.238560 36.967350 36.696538 36.425980 36.155556
36.533333 36.838789 37.144383 37.450241 37.756513 38.063307 38.370782 38.679029
38.988210 39.298397 39.609755 39.922333 40.236295 40.551667 40.868608 41.187118
41.507351 41.829277 42.153043 42.478587 42.806045 43.135324 43.466545 43.799583
44.134540 44.471257 44.809819 45.150032 45.491957 45.835366 46.180296 46.526484
46.873944 47.222375 47.571767 47.921785 48.272391 48.623219 48.974205 49.324953
49.675373 50.025042 50.373846 50.721338 51.067383 51.411515 51.753582 52.093101
52.429906 52.763507 53.093726 53.420071 53.742357 54.060095 54.373102 54.680897
54.983300 55.279847 55.570366 55.854414 56.131832 56.402202 56.665381 56.920983
57.168882 57.408725 57.640407 57.863608 58.078245 58.284035 58.480912 58.668630
58.847142 59.016237 59.175884 59.325904 59.466282 59.596867 59.717656 59.828527
59.929482 60.020426 60.101367 60.172231 60.233027 60.283704 60.324268 60.354688
60.374969 60.385095 60.385069 60.374891 60.354560 60.324094 60.283489 60.232780
60.171959 60.101082 60.020140 59.929208 59.828282 59.717457 59.596735 59.466236
59.325970 59.176086 59.016603 58.847702 58.669416 58.481959 58.285379 58.079927
57.865668 57.642891 57.411679 57.172358 56.925032 56.670061 56.407570 56.137952
55.861351 55.578189 55.288627 54.993114 54.691823 54.385224 54.073497 53.757131
53.436309 53.111529 52.782973 52.451143 52.116217 51.778691 51.438733 51.096833
50.753144 50.408139 50.061954 49.715044 49.367522 49.019819 48.672026 48.324546
47.977442 47.631091 47.285527 46.941095 46.597803 46.255959 45.915549 45.576845
45.239806 44.904668 44.571368 44.240106 43.910796 43.583605 43.258424 42.935387
42.614369 42.295468 41.978545 41.663666 41.350680 41.039621 40.730328 40.422808
40.116893 39.812561 39.509641 39.208085 38.907721 38.608478 38.310184 38.012750
37.716005 37.419841 37.124097 36.828645 36.533333
36.911111 37.242397 37.573828 37.905562 38.237729 38.570495 38.903974 39.238339
39.573683 39.910182 40.247906 40.587034 40.927609 41.269808 41.613647 41.959298
42.306747 42.656157 43.007484 43.360878 43.716262 44.073773 44.433297 44.794955
45.158597 45.524322 45.891944 46.261539 46.632883 47.006027 47.380708 47.756952
48.134455 48.513217 48.892895 49.273460 49.654533 50.036056 50.417615 50.799124
51.180136 51.560537 51.939855 52.317948 52.694320 53.068810 53.440899 53.810408
54.176807 54.539903 54.899159 55.254372 55.605005 55.950853 56.291385 56.626398
56.955375 57.278121 57.594139 57.903245 58.204971 58.499147 58.785338 59.063393
59.332912 59.593766 59.845594 60.088290 60.321531 60.545236 60.759120 60.963125
61.157004 61.340719 61.514062 61.677009 61.829388 61.971190 62.102273 62.222639
62.332174 62.430887 62.518689 62.595593 62.661534 62.716522 62.760515 62.793520
62.815514 62.826500 62.826473 62.815431 62.793385 62.760332 62.716297 62.661275
62.595310 62.518393 62.430590 62.331893 62.222390 62.102076 61.971066 61.829360
61.677102 61.514304 61.341140 61.157636 60.964003 60.760282 60.546721 60.323382
60.090552 59.848315 59.596999 59.336709 59.067813 58.790440 58.504998 58.211635
57.910795 57.602648 57.287669 56.966042 56.638271 56.304552 55.965409 55.621047
55.272002 54.918482 54.561030 54.199851 53.835488 53.468137 53.098335 52.726262
52.352445 51.977044 51.600566 51.223151 50.845281 50.467070 50.088973 49.711075
49.333801 48.957206 48.581679 48.207247 47.834264 47.462726 47.092947 46.724898
46.358853 45.994755 45.632840 45.273025 44.915509 44.560185 44.207212 43.856465
43.508067 43.161872 42.817968 42.476196 42.136609 41.799035 41.463495 41.129808
40.797965 40.467779 40.139212 39.812074 39.486300 39.161702 38.838190 38.515578
38.193755 37.872541 37.551806 37.231378 36.911111
37.288889 37.646083 38.003443 38.361119 38.719288 39.078083 39.437690 39.798221
40.159868 40.522720 40.886972 41.252686 41.620056 41.989116 42.360058 42.732883
43.107775 43.484705 43.863844 44.245128 44.628715 45.014503 45.402634 45.792967
46.185623 46.580421 46.977459 47.376516 47.777662 48.180635 48.585479 48.991887
49.399873 49.809090 50.219521 50.630776 51.042807 51.455185 51.867830 52.280276
52.692413 53.103741 53.514120 53.923023 54.330281 54.735345 55.138024 55.537748
55.934310 56.327130 56.715986 57.100295 57.479828 57.854006 58.222599 58.585040
58.941105 59.290244 59.632246 59.966587 60.293072 60.611210 60.920826 61.221466
61.512978 61.794951 62.067259 62.329531 62.581669 62.823347 63.054491 63.274818
63.484279 63.682633 63.869849 64.045727 64.210253 64.363264 64.504758 64.634604
64.752810 64.859273 64.954006 65.036932 65.108066 65.167352 65.214803 65.250384
65.274106 65.285950 65.285921 65.274019 65.250244 65.214612 65.167118 65.107797
65.036639 64.953701 64.858969 64.752525 64.634355 64.504567 64.363152 64.210247
64.045852 63.870136 63.683113 63.484989 63.275794 63.055773 62.824978 62.583696
62.332001 62.070225 61.798468 61.517105 61.226263 60.926360 60.617549 60.300289
59.974758 59.641451 59.300567 58.952634 58.597867 58.236822 57.869723 57.497147
57.119323 56.736839 56.349924 55.959170 55.564800 55.167401 54.767184 54.364725
53.960216 53.554215 53.146892 52.738783 52.330029 51.921136 51.512218 51.103747
50.695806 50.288830 49.882868 49.478319 49.075199 48.673864 48.274298 47.876818
47.481377 47.088248 46.697355 46.308930 45.922871 45.539367 45.158294 44.779800
44.403738 44.030218 43.659077 43.290385 42.923964 42.559851 42.197854 41.837976
41.480018 41.123951 40.769571 40.416820 40.065492 39.715501 39.366644 39.018810
38.671799 38.325480 37.979661 37.634191 37.288889
37.666667 38.049858 38.433222 38.816943 39.201178 39.586121 39.971909 40.358745
40.746741 41.136106 41.526923 41.919404 42.313604 42.709730 43.107807 43.508035
43.910405 44.315108 44.722097 45.131551 45.543384 45.957759 46.374548 46.793892
47.215625 47.639862 48.066392 48.495306 48.926346 49.359574 49.794688 50.231716
50.670312 51.110470 51.551798 51.994257 52.437410 52.881183 53.325098 53.769046
54.212510 54.655348 55.097009 55.537320 55.975699 56.411947 56.845460 57.276015
57.702990 58.126147 58.544856 58.958866 59.367547 59.770645 60.167539 60.557977
60.941353 61.317427 61.685618 62.045700 62.397127 62.739694 63.072892 63.396541
63.710177 64.013648 64.306536 64.588719 64.859828 65.119769 65.368221 65.605118
65.830186 66.043384 66.244483 66.433460 66.610129 66.774484 66.926373 67.065806
67.192662 67.306956 67.408597 67.497604 67.573910 67.637533 67.688429 67.726609
67.752051 67.764760 67.764730 67.751961 67.726464 67.688232 67.637293 67.573634
67.497304 67.408285 67.306648 67.192375 67.065561 66.926191 66.774389 66.610148
66.433623 66.244820 66.043932 65.830979 65.606198 65.369630 65.121554 64.862037
64.591405 64.309754 64.017457 63.714639 63.401723 63.078863 62.746530 62.404904
62.054500 61.695525 61.328533 60.953752 60.571767 60.182824 59.787534 59.386149
58.979301 58.567244 58.150618 57.729673 57.305048 56.876983 56.446110 56.012651
55.577220 55.140017 54.701633 54.262242 53.822405 53.382263 52.942344 52.502755
52.063987 51.626112 51.189576 50.754418 50.321041 49.889447 49.459994 49.032651
48.607730 48.185167 47.765228 47.347820 46.933164 46.521138 46.111920 45.705364
45.301604 44.900473 44.502065 44.106194 43.712915 43.322028 42.933550 42.547272
42.163174 41.781041 41.400821 41.022292 40.645376 40.269849 39.895605 39.522425
39.150176 38.778646 38.407681 38.037079 37.666667
38.044444 38.453717 38.863183 39.273020 39.683436 40.094587 40.506690 40.919881
41.334381 41.750299 42.167861 42.587145 43.008377 43.431602 43.857041 44.284705
44.714806 45.147317 45.582439 46.020103 46.460494 46.903502 47.349290 47.797705
48.248887 48.702635 49.159061 49.617919 50.079290 50.542879 51.008732 51.476505
51.946212 52.417457 52.890216 53.364046 53.838885 54.314243 54.790018 55.265679
55.741086 56.215665 56.689243 57.161210 57.631360 58.099056 58.564063 59.025720
59.483771 59.937543 60.386762 60.830750 61.269225 61.701513 62.127332 62.546022
62.957309 63.360554 63.755498 64.141535 64.518427 64.885608 65.242866 65.589681
65.925870 66.250964 66.564813 66.867001 67.157411 67.435679 67.701721 67.955225
68.196137 68.424195 68.639369 68.841443 69.030409 69.206093 69.368501 69.517496