# vtk DataFile Version 3.0
Steady-state temperature (Jacobi)
ASCII
DATASET STRUCTURED_POINTS
DIMENSIONS 181 181 1
ORIGIN 0.0 0.0 0.0
SPACING 0.05 0.05 1.0
POINT_DATA 32761
SCALARS Temperature float 1
LOOKUP_TABLE default
32.000000 32.000000 32.000000 32.000000 32.000000 32.000000 32.000000 32.000000
32.000000 32.000000 32.000000 32.000000 32.000000 32.000000 32.000000 32.000000
32.000000 32.000000 32.000000 32.000000 32.000000 32.000000 32.000000 32.000000
32.000000 32.000000 32.000000 32.000000 32.000000 32.000000 32.000000 32.000000
32.000000 32.000000 32.000000 32.000000 32.000000 32.000000 32.000000 32.000000
32.000000 32.000000 32.000000 32.000000 32.000000 32.000000 32.000000 32.000000
32.000000 32.000000 32.000000 32.000000 32.000000 32.000000 32.000000 32.000000
32.000000 32.000000 32.000000 32.000000 32.000000 32.000000 32.000000 32.000000
32.000000 32.000000 32.000000 32.000000 32.000000 32.000000 32.000000 32.000000
32.000000 32.000000 32.000000 32.000000 32.000000 32.000000 32.000000 32.000000
32.000000 32.000000 32.000000 32.000000 32.000000 32.000000 32.000000 32.000000
32.000000 32.000000 32.000000 32.000000 32.000000 32.000000 32.000000 32.000000
32.000000 32.000000 32.000000 32.000000 32.000000 32.000000 32.000000 32.000000
32.000000 32.000000 32.000000 32.000000 32.000000 32.000000 32.000000 32.000000
32.000000 32.000000 32.000000 32.000000 32.000000 32.000000 32.000000 32.000000
32.000000 32.000000 32.000000 32.000000 32.000000 32.000000 32.000000 32.000000
32.000000 32.000000 32.000000 32.000000 32.000000 32.000000 32.000000 32.000000
32.000000 32.000000 32.000000 32.000000 32.000000 32.000000 32.000000 32.000000
32.000000 32.000000 32.000000 32.000000 32.000000 32.000000 32.000000 32.000000
32.000000 32.000000 32.000000 32.000000 32.000000 32.000000 32.000000 32.000000
32.000000 32.000000 32.000000 32.000000 32.000000 32.000000 32.000000 32.000000
32.000000 32.000000 32.000000 32.000000 32.000000 32.000000 32.000000 32.000000
32.000000 32.000000 32.000000 32.000000 32.000000
32.377778 32.403714 32.429659 32.455624 32.481618 32.507651 32.533731 32.559869
32.586070 32.612348 32.638705 32.665154 32.691696 32.718344 32.745097 32.771968
32.798953 32.826063 32.853295 32.880658 32.908145 32.935765 32.963509 32.991385
33.019380 33.047501 33.075733 33.104082 33.132529 33.161078 33.189709 33.218423
33.247197 33.276031 33.304899 33.333800 33.362705 33.391610 33.420486 33.449325
33.478096 33.506790 33.535375 33.563841 33.592152 33.620297 33.648240 33.675969
33.703447 33.730660 33.757572 33.784168 33.810411 33.836288 33.861762 33.886818
33.911421 33.935557 33.959191 33.982312 34.004885 34.026900 34.048324 34.069147
34.089340 34.108894 34.127782 34.145995 34.163510 34.180321 34.196404 34.211756
34.226356 34.240200 34.253273 34.265571 34.277079 34.287796 34.297710 34.306819
34.315113 34.322592 34.329249 34.335082 34.340086 34.344261 34.347602 34.350110
34.351783 34.352620 34.352620 34.351785 34.350113 34.347607 34.344268 34.340096
34.335096 34.329268 34.322618 34.315145 34.306860 34.297761 34.287859 34.277156
34.265664 34.253385 34.240333 34.226512 34.211938 34.196616 34.180566 34.163792
34.146317 34.128147 34.109308 34.089807 34.069671 34.048910 34.027553 34.005611
33.983116 33.960080 33.936536 33.912496 33.887997 33.863052 33.837697 33.811946
33.785836 33.759382 33.732621 33.705567 33.678258 33.650708 33.622953 33.595005
33.566903 33.538657 33.510303 33.481850 33.453332 33.424759 33.396161 33.367547
33.338945 33.310361 33.281822 33.253331 33.224915 33.196573 33.168328 33.140180
33.112149 33.084231 33.056445 33.028785 33.001266 32.973883 32.946648 32.919552
32.892605 32.865798 32.839139 32.812616 32.786235 32.759985 32.733867 32.707870
32.681994 32.656227 32.630567 32.605001 32.579526 32.554128 32.528802 32.503536
32.478323 32.453150 32.428008 32.402888 32.377778
32.755556 32.807434 32.859332 32.911269 32.963265 33.015336 33.067506 33.119786
33.172201 33.224760 33.277488 33.330389 33.383488 33.436787 33.490310 33.544054
33.598042 33.652267 33.706750 33.761479 33.816475 33.871720 33.927231 33.982988
34.039003 34.095252 34.151743 34.208447 34.265370 34.322476 34.379769 34.437205
34.494786 34.552464 34.610236 34.668048 34.725894 34.783717 34.841504 34.899196
34.956776 35.014180 35.071389 35.128335 35.184997 35.241302 35.297229 35.352703
35.407698 35.462141 35.516004 35.569212 35.621738 35.673507 35.724492 35.774619
35.823861 35.872147 35.919451 35.965705 36.010884 36.054924 36.097802 36.139458
36.179872 36.218988 36.256788 36.293222 36.328275 36.361901 36.394088 36.424795
36.454012 36.481704 36.507865 36.532462 36.555491 36.576926 36.596763 36.614982
36.631579 36.646538 36.659857 36.671523 36.681535 36.689885 36.696570 36.701586
36.704933 36.706607 36.706608 36.704937 36.701593 36.696581 36.689900 36.681556
36.671552 36.659895 36.646588 36.631644 36.615064 36.596866 36.577053 36.555646
36.532649 36.508088 36.481970 36.454325 36.425161 36.394513 36.362392 36.328839
36.293866 36.257520 36.219816 36.180805 36.140506 36.098974 36.056230 36.012336
35.967313 35.921228 35.874105 35.826013 35.776978 35.727073 35.676325 35.624808
35.572549 35.519625 35.466063 35.411940 35.357282 35.302165 35.246614 35.190705
35.134460 35.077953 35.021205 34.964285 34.907211 34.850051 34.792819 34.735578
34.678338 34.621159 34.564047 34.507056 34.450190 34.393497 34.336977 34.280673
34.224581 34.168739 34.113139 34.057814 34.002752 33.947981 33.893487 33.839290
33.785375 33.731758 33.678419 33.625371 33.572591 33.520087 33.467835 33.415839
33.364073 33.312536 33.261202 33.210067 33.159104 33.108305 33.057643 33.007107
32.956671 32.906320 32.856029 32.805782 32.755556
33.133333 33.211169 33.289033 33.366957 33.444966 33.523095 33.601364 33.679808
33.758445 33.837310 33.916415 33.995796 34.075460 34.155441 34.235740 34.316392
34.397389 34.478766 34.560508 34.642645 34.725157 34.808072 34.891360 34.975046
35.059093 35.143520 35.228284 35.313399 35.398814 35.484536 35.570506 35.656729
35.743136 35.829725 35.916420 36.003214 36.090025 36.176838 36.263563 36.350183
36.436600 36.522791 36.608653 36.694159 36.779202 36.863749 36.947690 37.030989
37.113534 37.195286 37.276132 37.356032 37.434871 37.512610 37.589136 37.664408
37.738318 37.810825 37.881824 37.951278 38.019087 38.085215 38.149569 38.212116
38.272769 38.331500 38.388228 38.442930 38.495533 38.546016 38.594315 38.640415
38.684256 38.725828 38.765080 38.802004 38.836557 38.868732 38.898495 38.925841
38.950742 38.973194 38.993176 39.010686 39.025706 39.038238 39.048267 39.055796
39.060816 39.063328 39.063330 39.060822 39.055806 39.048283 39.038260 39.025738
39.010729 38.993234 38.973270 38.950839 38.925965 38.898650 38.868923 38.836790
38.802285 38.765417 38.726227 38.684727 38.640964 38.594954 38.546753 38.496379
38.443896 38.389327 38.332743 38.274170 38.213689 38.151328 38.087177 38.021266
37.953693 37.884491 37.813763 37.741547 37.667949 37.593009 37.516838 37.439477
37.361039 37.281566 37.201172 37.119898 37.037859 36.955095 36.871718 36.787765
36.703349 36.618501 36.533330 36.447865 36.362208 36.276385 36.190494 36.104552
36.018652 35.932806 35.847101 35.761543 35.676209 35.591101 35.506290 35.421770
35.337603 35.253781 35.170355 35.087312 35.004696 34.922488 34.840726 34.759384
34.678493 34.598024 34.517999 34.438387 34.359202 34.280410 34.202019 34.123992
34.046329 33.968994 33.891981 33.815252 33.738795 33.662572 33.586567 33.510741
33.435073 33.359527 33.284077 33.208689 33.133333
33.511111 33.614923 33.718776 33.822705 33.926755 34.030956 34.135354 34.239976
34.344869 34.450052 34.555573 34.661445 34.767715 34.874389 34.981513 35.089083
35.197144 35.305683 35.414742 35.524299 35.634392 35.744990 35.856125 35.967755
36.079909 36.192533 36.305650 36.419197 36.533189 36.647551 36.762292 36.877327
36.992657 37.108187 37.223910 37.339719 37.455602 37.571441 37.687217 37.802804
37.918173 38.033193 38.147828 38.261938 38.375482 38.488316 38.600393 38.711565
38.821781 38.930891 39.038840 39.145478 39.250748 39.354502 39.456684 39.557145
39.655832 39.752601 39.847400 39.940092 40.030628 40.118879 40.204798 40.288265
40.369240 40.447611 40.523342 40.596332 40.666552 40.733909 40.798380 40.859884
40.918401 40.973861 41.026249 41.075505 41.121618 41.164537 41.204256 41.240731
41.273959 41.303905 41.330568 41.353921 41.373964 41.390677 41.404059 41.414100
41.420798 41.424148 41.424151 41.420806 41.414113 41.404081 41.390707 41.374007
41.353980 41.330647 41.304007 41.274090 41.240897 41.204463 41.164793 41.121930
41.075881 41.026700 40.974395 40.919030 40.860619 40.799234 40.734894 40.667682
40.597623 40.524809 40.449270 40.371110 40.290364 40.207146 40.121496 40.033536
39.943314 39.850959 39.756521 39.660141 39.561869 39.461851 39.360142 39.256892
39.152156 39.046087 38.938741 38.830270 38.720728 38.610269 38.498944 38.386903
38.274193 38.160961 38.047248 37.933196 37.818841 37.704316 37.589652 37.474974
37.360305 37.245762 37.131358 37.017204 36.903304 36.789756 36.676560 36.563802
36.451473 36.339650 36.228317 36.117540 36.007294 35.897635 35.788534 35.680035
35.572103 35.464772 35.358002 35.251817 35.146173 35.041084 34.936504 34.832438
34.728835 34.625693 34.522962 34.420628 34.318643 34.216985 34.115605 34.014477
33.913551 33.812795 33.712163 33.611616 33.511111
33.888889 34.018707 34.148573 34.278540 34.408651 34.538961 34.669508 34.800350
34.931515 35.063064 35.195017 35.327434 35.460326 35.593752 35.727715 35.862270
35.997408 36.133184 36.269576 36.406634 36.544325 36.682694 36.821695 36.961365
37.101648 37.242573 37.384069 37.526159 37.668757 37.811878 37.955423 38.099398
38.243689 38.388294 38.533085 38.678050 38.823051 38.968065 39.112941 39.257647
39.402024 39.546029 39.689493 39.832368 39.974474 40.115757 40.256033 40.395240
40.533191 40.669819 40.804935 40.938470 41.070234 41.200158 41.328055 41.453855
41.577376 41.698550 41.817202 41.933267 42.046578 42.157076 42.264603 42.369107
42.470440 42.568556 42.663320 42.754694 42.842555 42.926870 43.007531 43.084513
43.157719 43.227130 43.292663 43.354304 43.411984 43.465691 43.515368 43.561008
43.602564 43.640032 43.673376 43.702594 43.727657 43.748566 43.765301 43.777862
43.786237 43.790429 43.790432 43.786247 43.777879 43.765328 43.748606 43.727712
43.702669 43.673475 43.640162 43.602729 43.561217 43.515629 43.466012 43.412376
43.354778 43.293229 43.227800 43.158508 43.085434 43.008601 42.928104 42.843971
42.756311 42.665157 42.570634 42.472781 42.371735 42.267542 42.160351 42.050217
41.937298 41.821654 41.703455 41.582766 41.459764 41.334518 41.207213 41.077918
40.946822 40.813998 40.679635 40.543805 40.406698 40.268382 40.129047 39.988754
39.847691 39.705914 39.563602 39.420806 39.277698 39.134319 38.990833 38.847271
38.703788 38.560405 38.417264 38.274377 38.131875 37.989759 37.848146 37.707030
37.566512 37.426576 37.287312 37.148694 37.010799 36.873592 36.737135 36.601389
36.466401 36.332125 36.198597 36.065764 35.933649 35.802195 35.671415 35.541247
35.411693 35.282690 35.154227 35.026241 34.898712 34.771577 34.644807 34.518338
34.392136 34.266138 34.140301 34.014568 33.888889
34.266667 34.422523 34.578440 34.734473 34.890689 35.047134 35.203879 35.360962
35.518456 35.676391 35.834838 35.993818 36.153402 36.313599 36.474479 36.636037
36.798340 36.961371 37.125192 37.289771 37.455165 37.621328 37.788310 37.956047
38.124583 38.293838 38.463847 38.634514 38.805862 38.977782 39.150284 39.323242
39.496657 39.670386 39.844418 40.018595 40.192893 40.367142 40.541305 40.715198
40.888774 41.061835 41.234327 41.406040 41.576911 41.746720 41.915398 42.082720
42.248608 42.412835 42.575318 42.735830 42.894285 43.050457 43.204260 43.355473
43.504011 43.649659 43.792337 43.931838 44.068088 44.200890 44.330177 44.455765
44.577595 44.695498 44.809421 44.919211 45.024824 45.126124 45.223074 45.315553
45.403533 45.486909 45.565660 45.639695 45.709001 45.773501 45.833185 45.887992
45.937916 45.982907 46.022962 46.058043 46.088149 46.113253 46.133354 46.148434
46.158495 46.163527 46.163531 46.158507 46.148456 46.133388 46.113301 46.088217
46.058135 46.023083 45.983064 45.938118 45.888246 45.833502 45.773890 45.709475
45.640266 45.566342 45.487717 45.404484 45.316663 45.224362 45.127610 45.026529
44.921156 44.811630 44.697997 44.580410 44.458924 44.333708 44.204825 44.072460
43.936680 43.797685 43.655550 43.510485 43.362569 43.212022 43.058927 42.903511
42.745858 42.586200 42.424620 42.261351 42.096475 41.930223 41.762674 41.594053
41.424435 41.254039 41.082929 40.911320 40.739264 40.566966 40.394470 40.221965
40.049486 39.877209 39.705157 39.533491 39.362222 39.191496 39.021312 38.851800
38.682946 38.514866 38.347535 38.181051 38.015379 37.850600 37.686672 37.523659
37.361508 37.200270 37.039885 36.880388 36.721713 36.563881 36.406820 36.250537
36.094959 35.940079 35.785821 35.632166 35.479038 35.326407 35.174196 35.022367
34.870844 34.719579 34.568501 34.417553 34.266667
34.644444 34.826381 35.008385 35.190533 35.372884 35.555519 35.738489 35.921877
36.105724 36.290115 36.475079 36.660702 36.846999 37.034056 37.221873 37.410533
37.600022 37.790417 37.981690 38.173910 38.367033 38.561122 38.756112 38.952059
39.148880 39.346621 39.545180 39.744591 39.944733 40.145629 40.347138 40.549269
40.751864 40.954918 41.158254 41.361852 41.565519 41.769222 41.972750 42.176056
42.378915 42.581268 42.782875 42.983667 43.183393 43.381973 43.579148 43.774828
43.968751 44.160819 44.350767 44.538495 44.723736 44.906389 45.086191 45.263042
45.436684 45.607021 45.773806 45.936946 46.096206 46.251501 46.402611 46.549459
46.691840 46.829688 46.962814 47.091163 47.214566 47.332975 47.446241 47.554326
47.657100 47.754534 47.846515 47.933024 48.013964 48.089321 48.159017 48.223043
48.281335 48.333889 48.380655 48.421630 48.456777 48.486096 48.509562 48.527174
48.538919 48.544795 48.544800 48.538933 48.527201 48.509603 48.486155 48.456858
48.421739 48.380798 48.334076 48.281573 48.223343 48.159390 48.089779 48.014521
47.933695 47.847316 47.755483 47.658214 47.555627 47.447749 47.334714 47.216560
47.093439 46.965399 46.832610 46.695131 46.553151 46.406739 46.256100 46.101314
45.942603 45.780053 45.613902 45.444244 45.271329 45.095254 44.916280 44.734508
44.550204 44.363470 44.174578 43.983625 43.790885 43.596452 43.400594 43.203401
43.005136 42.805880 42.605886 42.405226 42.204143 42.002696 41.801114 41.599445
41.397902 41.196520 40.995495 40.794847 40.594757 40.395230 40.196427 39.998339
39.801109 39.604716 39.409283 39.214775 39.021297 38.828802 38.637376 38.446962
38.257627 38.069305 37.882045 37.695773 37.510520 37.326208 37.142849 36.960361
36.778742 36.597904 36.417833 36.238437 36.059689 35.881499 35.703825 35.526579
35.349710 35.173130 34.996778 34.820573 34.644444
35.022222 35.230283 35.438426 35.646727 35.855273 36.064131 36.273394 36.483116
36.693393 36.904267 37.115835 37.328124 37.541233 37.755172 37.970036 38.185821
38.402617 38.620401 38.839259 39.059148 39.280145 39.502190 39.725348 39.949540
40.174820 40.401086 40.628383 40.856584 41.085721 41.315646 41.546376 41.777742
42.009745 42.242193 42.475072 42.708170 42.941457 43.174700 43.407854 43.640668
43.873080 44.104825 44.335826 44.565803 44.794668 45.022128 45.248085 45.472238
45.694480 45.914505 46.132200 46.347258 46.559561 46.768806 46.974875 47.177469
47.376473 47.571598 47.762733 47.949603 48.132102 48.309972 48.483116 48.651293
48.814419 48.972270 49.124774 49.271729 49.413075 49.548631 49.678348 49.802068
49.919752 50.031263 50.136574 50.235567 50.328223 50.414444 50.494219 50.567466
50.634180 50.694296 50.747812 50.794679 50.834897 50.868430 50.895279 50.915422
50.928859 50.935580 50.935586 50.928877 50.915453 50.895327 50.868498 50.834992
50.794806 50.747980 50.694513 50.634456 50.567813 50.494650 50.414973 50.328866
50.236340 50.137496 50.032354 49.921033 49.803561 49.680080 49.550627 49.415363
49.274339 49.127737 48.975618 48.818189 48.655522 48.487843 48.315237 48.137950
47.956077 47.769883 47.579472 47.385124 47.186950 46.985243 46.780120 46.571882
46.360649 46.146729 45.930239 45.711491 45.490599 45.267872 45.043419 44.817545
44.590349 44.362128 44.132971 43.903162 43.672778 43.442090 43.211160 42.980242
42.749383 42.518818 42.288580 42.058883 41.829743 41.601354 41.373716 41.147002
40.921193 40.696444 40.472719 40.250151 40.028691 39.808448 39.589362 39.371521
39.154853 38.939423 38.725152 38.512084 38.300131 38.089319 37.879553 37.670840
37.463081 37.256266 37.050292 36.845134 36.640688 36.436914 36.233709 36.031019
35.828742 35.626814 35.425138 35.223638 35.022222
35.400000 35.634239 35.868567 36.103083 36.337865 36.573017 36.808608 37.044745
37.281483 37.518932 37.757131 37.996192 38.236138 38.477076 38.719013 38.962053
39.206183 39.451500 39.697972 39.945687 40.194591 40.444765 40.696129 40.948754
41.202536 41.457532 41.713615 41.970827 42.229016 42.488207 42.748225 43.009077
43.270562 43.532671 43.795178 44.058056 44.321057 44.584134 44.847017 45.109643
45.371721 45.633171 45.893685 46.153168 46.411297 46.667964 46.922833 47.175786
47.426480 47.674787 47.920361 48.163069 48.402566 48.638715 48.871177 49.099816
49.324301 49.544501 49.760097 49.970966 50.176804 50.377499 50.572765 50.762502
50.946447 51.124511 51.296454 51.462202 51.621540 51.774407 51.920612 52.060108
52.192729 52.318439 52.437095 52.548675 52.653056 52.750225 52.840081 52.922617
52.997752 53.065482 53.125747 53.178545 53.223829 53.261603 53.291833 53.314521
53.329650 53.337221 53.337227 53.329671 53.314558 53.291889 53.261683 53.223939
53.178692 53.125940 53.065731 52.998068 52.923014 52.840573 52.750827 52.653787
52.549552 52.438141 52.319674 52.194179 52.061798 51.922570 51.776663 51.624124
51.465149 51.299797 51.128289 50.950700 50.767272 50.578094 50.383435 50.183394
49.978262 49.768152 49.553372 49.334045 49.110495 48.882853 48.651457 48.416440
48.178148 47.936718 47.692501 47.445629 47.196455 46.945106 46.691930 46.437047
46.180797 45.923289 45.664850 45.405577 45.145782 44.885547 44.625167 44.364704
44.104437 43.844408 43.584873 43.325859 43.067596 42.810093 42.553556 42.297976
42.043536 41.790206 41.538145 41.287308 41.037828 40.789645 40.542867 40.297422
40.053393 39.810695 39.569388 39.329378 39.090703 38.853259 38.617064 38.382008
38.148087 37.915189 37.683291 37.452276 37.222108 36.992667 36.763901 36.535694
36.307977 36.080639 35.853599 35.626749 35.400000
35.777778 36.038250 36.298828 36.559605 36.820696 37.082184 37.344187 37.606775
37.870070 38.134126 38.399066 38.664928 38.931833 39.199799 39.468946 39.739270
40.010885 40.283766 40.558019 40.833595 41.110591 41.388932 41.668704 41.949806
42.232309 42.516086 42.801193 43.087476 43.374972 43.663499 43.953076 44.243494
44.534752 44.826613 45.119055 45.411815 45.704851 45.997875 46.290823 46.583384
46.875475 47.166763 47.457148 47.746277 48.034035 48.320054 48.604203 48.886106
49.165620 49.442361 49.716179 49.986689 50.253736 50.516937 50.776138 51.030963
51.281260 51.526666 51.767038 52.002026 52.231497 52.455124 52.672784 52.884173
53.089183 53.287537 53.479141 53.663744 53.841271 54.011496 54.174360 54.329667
54.477371 54.617302 54.749429 54.873607 54.989817 55.097938 55.197960 55.289783
55.373405 55.448747 55.515809 55.574533 55.624921 55.666931 55.700564 55.725796
55.742628 55.751047 55.751054 55.742652 55.725838 55.700629 55.667023 55.625047
55.574701 55.516029 55.449029 55.373763 55.290231 55.198514 55.098616 54.990638
54.874592 54.750600 54.618685 54.478993 54.331556 54.176548 54.014014 53.844155
53.667031 53.482870 53.291749 53.093923 52.889486 52.678720 52.461733 52.238835
52.010148 51.776004 51.536538 51.292103 51.042843 50.789128 50.531109 50.269168
50.003459 49.734371 49.462059 49.186914 48.909087 48.628968 48.346699 48.062663
47.776991 47.490058 47.201978 46.913110 46.623555 46.333652 46.043484 45.753368
45.463366 45.173775 44.884634 44.596215 44.308536 44.021842 43.736132 43.451621
43.168288 42.886323 42.605684 42.326532 42.048809 41.772647 41.497972 41.224890
40.953311 40.683316 40.414803 40.147826 39.882273 39.618174 39.355410 39.093988
38.833781 38.574776 38.316842 38.059946 37.803956 37.548821 37.294408 37.040650
36.787419 36.534630 36.282161 36.029916 35.777778
36.155556 36.442326 36.729207 37.016322 37.303769 37.591678 37.880135 38.169272
38.459160 38.749936 39.041649 39.334438 39.628334 39.923470 40.219856 40.517623
40.816755 41.117376 41.419445 41.723075 42.028201 42.334923 42.643147 42.952958
43.264235 43.577046 43.891238 44.206864 44.523738 44.841893 45.161113 45.481408
45.802534 46.124476 46.446961 46.769952 47.093144 47.416479 47.739625 48.062500
48.384749 48.706267 49.026676 49.345854 49.663402 49.979181 50.292779 50.604042
50.912548 51.218132 51.520366 51.819080 52.113847 52.404492 52.690595 52.971984
53.248248 53.519221 53.784510 54.043956 54.297188 54.544061 54.784226 55.017555
55.243727 55.462630 55.673972 55.877662 56.073437 56.261223 56.440791 56.612083
56.774900 56.929201 57.074815 57.211717 57.339763 57.458938 57.569125 57.670318
57.762422 57.845438 57.919293 57.983989 58.039473 58.085750 58.122783 58.150575
58.169107 58.178381 58.178390 58.169135 58.150625 58.122857 58.085855 58.039616
57.984179 57.919540 57.845756 57.762824 57.670819 57.569744 57.459693 57.340676
57.212811 57.076116 56.930735 56.776697 56.614175 56.443211 56.264008 56.076624
55.881293 55.678089 55.467279 55.248956 55.023417 54.790772 54.551349 54.305277
54.052909 53.794390 53.530099 53.260193 52.985072 52.704903 52.420101 52.130840
51.837546 51.540395 51.239819 50.935990 50.629342 50.320039 50.008511 49.694911
49.379660 49.062896 48.745024 48.426167 48.106710 47.786757 47.466671 47.146533
46.826681 46.507175 46.188325 45.870166 45.552981 45.236780 44.921817 44.608080
44.295789 43.984912 43.675639 43.367916 43.061902 42.757525 42.454913 42.153977
41.854817 41.557327 41.261579 40.967455 40.674999 40.384084 40.094727 39.806793
39.520276 39.235035 38.951040 38.668147 38.386308 38.105376 37.825284 37.545888
37.267102 36.988787 36.710843 36.433137 36.155556
36.533333 36.846465 37.159725 37.473231 37.787121 38.101498 38.416507 38.732235
39.048830 39.366360 39.684976 40.004726 40.325757 40.648095 40.971884 41.297126
41.623957 41.952351 42.282438 42.614161 42.947639 43.282786 43.619704 43.958277
44.298592 44.640498 44.984062 45.329102 45.675664 46.023530 46.372724 46.722994
47.074340 47.426476 47.779376 48.132723 48.486464 48.840250 49.194004 49.547348
49.900179 50.252093 50.602965 50.952367 51.300153 51.645878 51.989376 52.330190
52.668140 53.002759 53.333858 53.660968 53.983895 54.302171 54.615603 54.923734
55.226373 55.523079 55.813671 56.097727 56.375080 56.645333 56.908335 57.163719
57.411352 57.650900 57.882250 58.105101 58.319362 58.524766 58.721242 58.908559
59.086664 59.255359 59.414608 59.564245 59.704248 59.834479 59.954929 60.065487
60.166150 60.256832 60.337536 60.408196 60.468817 60.519354 60.559812 60.590160
60.610405 60.620532 60.620542 60.610437 60.590216 60.559896 60.519473 60.468979
60.408410 60.337814 60.257187 60.166598 60.066044 59.955615 59.835315 59.705257
59.565452 59.416042 59.257048 59.088641 58.910858 58.723900 58.527821 58.322857
58.109080 57.886760 57.655991 57.417077 57.170133 56.915497 56.653304 56.383925
56.107514 55.824471 55.534966 55.239426 54.938032 54.631233 54.319220 54.002455
53.681134 53.355731 53.026439 52.693736 52.357810 52.019137 51.677895 51.334550
50.989268 50.642501 50.294396 49.945387 49.595600 49.245446 48.895028 48.544732
48.194634 47.845091 47.496155 47.148149 46.801101 46.455302 46.110751 45.767708
45.426146 45.086290 44.748093 44.411742 44.077170 43.744530 43.413735 43.084907
42.757938 42.432921 42.109733 41.788434 41.468890 41.151133 40.835017 40.520547
40.207571 39.896067 39.585879 39.276963 38.969157 38.662397 38.356524 38.051451
37.747023 37.443138 37.139644 36.836423 36.533333
36.911111 37.250677 37.590378 37.930360 38.270746 38.611690 38.953297 39.295728
39.639070 39.983485 40.329039 40.675895 41.024096 41.373801 41.725027 42.077928
42.432492 42.788867 43.147009 43.507053 43.868926 44.232748 44.598412 44.966021
45.335434 45.706733 46.079741 46.454518 46.830851 47.208776 47.588042 47.968659
48.350338 48.733063 49.116508 49.500628 49.885064 50.269739 50.654263 51.038532
51.422122 51.804905 52.186428 52.566539 52.944764 53.320926 53.694534 54.065395
54.433003 54.797152 55.157331 55.513324 55.864621 56.211005 56.551969 56.887300
57.216506 57.539381 57.855452 58.164527 58.466159 58.760171 59.046147 59.323931
59.593142 59.853644 60.105095 60.347382 60.580200 60.803461 61.016897 61.220443
61.413869 61.597130 61.770031 61.932545 62.084510 62.225912 62.356622 62.476635
62.585848 62.684266 62.771808 62.848482 62.914230 62.969061 63.012936 63.045861
63.067814 63.078800 63.078812 63.067850 63.045925 63.013031 62.969196 62.914412
62.848722 62.772117 62.684660 62.586344 62.477250 62.357377 62.226831 62.085617
61.933868 61.771600 61.598977 61.416028 61.222952 61.019794 60.806790 60.584006
60.351714 60.110002 59.859182 59.599366 59.330903 59.053928 58.768830 58.475764
58.175154 57.867176 57.552283 57.230670 56.902815 56.568925 56.229500 55.884753
55.535197 55.181050 54.822832 54.460756 54.095343 53.726799 53.355638 52.982052
52.606542 52.229284 51.850759 51.471122 51.090832 50.710018 50.329111 49.948214
49.567729 49.187728 48.808580 48.430329 48.053309 47.677535 47.303303 46.930602
46.559690 46.190529 45.823340 45.458061 45.094874 44.733695 44.374671 44.017695
43.662882 43.310105 42.959446 42.610762 42.264102 41.919313 41.576412 41.235237
40.895777 40.557861 40.221453 39.886379 39.552577 39.219872 38.888182 38.557332
38.227219 37.897676 37.568579 37.239770 36.911111
37.288889 37.654959 38.021183 38.387702 38.754680 39.122242 39.490559 39.859737
40.229954 40.601292 40.973930 41.347929 41.723464 42.100570 42.479419 42.860014
43.242521 43.626912 44.013341 44.401748 44.792273 45.184820 45.579510 45.976214
46.375031 46.775793 47.178577 47.583176 47.989640 48.397722 48.807447 49.218525
49.630951 50.044397 50.458826 50.873870 51.289462 51.705196 52.120974 52.536354
52.951207 53.365059 53.777755 54.188791 54.597985 55.004812 55.409068 55.810210
56.208015 56.601932 56.991726 57.376839 57.757032 58.131752 58.500758 58.863509
59.219769 59.569017 59.911028 60.245307 60.571646 60.889579 61.198922 61.499245
61.790388 62.071959 62.343825 62.605637 62.857287 63.098470 63.329102 63.548921
63.757868 63.955719 64.142438 64.317838 64.481899 64.634471 64.775547 64.905006
65.022852 65.128991 65.223433 65.306107 65.377026 65.436139 65.483458 65.518951
65.542626 65.554468 65.554482 65.542667 65.519023 65.483566 65.436290 65.377229
65.306374 65.223777 65.129427 65.023398 64.905682 64.776375 64.635476 64.483109
64.319280 64.144146 63.957727 63.760214 63.551643 63.332245 63.102077 62.861410
62.610325 62.349135 62.077947 61.797116 61.506778 61.207329 60.898930 60.582017
60.256777 59.923682 59.582938 59.235051 58.880244 58.519048 58.151697 57.778741
57.400421 57.017298 56.629614 56.237932 55.842489 55.443844 55.042221 54.638171
54.231898 53.823937 53.414469 53.004006 52.592705 52.181048 51.769164 51.357503
50.946162 50.535558 50.125755 49.717131 49.309721 48.903863 48.499559 48.097107
47.696480 47.297936 46.901419 46.507145 46.115034 45.725262 45.337724 44.952559
44.569640 44.189069 43.810701 43.434602 43.060614 42.688767 42.318890 41.950985
41.584870 41.220516 40.857737 40.496477 40.136546 39.777864 39.420241 39.063574
38.707677 38.352427 37.997645 37.643188 37.288889
37.666667 38.059321 38.452135 38.845284 39.238910 39.633198 40.028273 40.424324
40.821457 41.219862 41.619622 42.020927 42.423832 42.828524 43.235029 43.643528
44.054012 44.466653 44.881410 45.298439 45.717661 46.139218 46.562991 46.989102
47.417391 47.847957 48.280599 48.715388 49.152081 49.590720 50.031018 50.472985
50.916292 51.360915 51.806481 52.252933 52.699856 53.147158 53.594383 54.041406
54.487734 54.933210 55.377306 55.819835 56.260243 56.698313 57.133471 57.565478
57.993741 58.418009 58.837679 59.252489 59.661836 60.065454 60.462750 60.853461
61.237010 61.613143 61.981310 62.341272 62.692510 63.034808 63.367684 63.690948
64.004160 64.307159 64.599550 64.881201 65.151766 65.411142 65.659027 65.895349
66.119850 66.332484 66.533035 66.721477 66.897635 67.061500 67.212932 67.351934
67.478396 67.592330 67.693653 67.782380 67.858452 67.921883 67.972633 68.010714
68.036105 68.048811 68.048826 68.036151 68.010796 67.972754 67.922052 67.858678
67.782676 67.694032 67.592809 67.478994 67.352673 67.213836 67.062595 66.898949
66.723043 66.534885 66.334657 66.122385 65.898290 65.662418 65.415033 65.156208
64.886252 64.605265 64.313603 64.011397 63.699048 63.376719 63.044857 62.703652
62.353593 61.994896 61.628091 61.253413 60.871424 60.482376 60.086855 59.685125
59.277787 58.865109 58.447700 58.025826 57.600095 57.170761 56.738427 56.303329
55.866054 55.426817 54.986182 54.544336 54.101816 53.658780 53.215729 52.772789
52.330425 51.888728 51.448122 51.008664 50.570737 50.134360 49.699875 49.267269
48.836836 48.408534 47.982612 47.558999 47.137902 46.719219 46.303118 45.889472
45.478408 45.069779 44.663671 44.259920 43.858575 43.459457 43.062579 42.667753
42.274958 41.883997 41.494821 41.107226 40.721136 40.336346 39.952754 39.570158
39.188433 38.807381 38.426857 38.046673 37.666667
38.044444 38.463757 38.883251 39.303091 39.723470 40.144537 40.566491 40.989460
41.413649 41.839160 42.266202 42.694848 43.125306 43.557618 43.991987 44.428423
44.867117 45.308046 45.751388 46.197083 46.645290 47.095909 47.549081 48.004662
48.462770 48.923218 49.386094 49.851168 50.318498 50.787805 51.259116 51.732106
52.206764 52.682719 53.159924 53.637961 54.116746 54.595814 55.075045 55.553933
56.032319 56.509658 56.985757 57.460038 57.932276 58.401864 58.868550 59.331705
59.791057 60.245963 60.696135 61.140927 61.580043 62.012838 62.439020 62.857957
63.269363 63.672630 64.067487 64.453356 64.829990 65.196848 65.553710 65.900080
66.235768 66.560328 66.873603 67.175197 67.464986 67.742627 68.008029 68.260899
68.501176 68.728613 68.943176 69.144664 69.333063 69.508211 69.670111 69.818636