<?xml version="1.0"?>
<VTKFile type="ImageData" version="0.1" byte_order="LittleEndian">
  <ImageData WholeExtent="0 180 0 180 0 0" Origin="0.0 0.0 0.0" Spacing="0.05 0.05 1">
    <Piece Extent="0 180 0 180 0 0">
      <PointData Scalars="Temperature">
        <DataArray type="Float32" Name="Temperature" format="ascii">
32.000000 32.000000 32.000000 32.000000 32.000000 32.000000 32.000000 32.000000 32.000000 32.000000 32.000000 32.000000 32.000000 32.000000 32.000000 32.000000 32.000000 32.000000 32.000000 32.000000 32.000000 32.000000 32.000000 32.000000 32.000000 32.000000 32.000000 32.000000 32.000000 32.000000 32.000000 32.000000 32.000000 32.000000 32.000000 32.000000 32.000000 32.000000 32.000000 32.000000 32.000000 32.000000 32.000000 32.000000 32.000000 32.000000 32.000000 32.000000 32.000000 32.000000 32.000000 32.000000 32.000000 32.000000 32.000000 32.000000 32.000000 32.000000 32.000000 32.000000 32.000000 32.000000 32.000000 32.000000 32.000000 32.000000 32.000000 32.000000 32.000000 32.000000 32.000000 32.000000 32.000000 32.000000 32.000000 32.000000 32.000000 32.000000 32.000000 32.000000 32.000000 32.000000 32.000000 32.000000 32.000000 32.000000 32.000000 32.000000 32.000000 32.000000 32.000000 32.000000 32.000000 32.000000 32.000000 32.000000 32.000000 32.000000 32.000000 32.000000 32.000000 32.000000 32.000000 32.000000 32.000000 32.000000 32.000000 32.000000 32.000000 32.000000 32.000000 32.000000 32.000000 32.000000 32.000000 32.000000 32.000000 32.000000 32.000000 32.000000 32.000000 32.000000 32.000000 32.000000 32.000000 32.000000 32.000000 32.000000 32.000000 32.000000 32.000000 32.000000 32.000000 32.000000 32.000000 32.000000 32.000000 32.000000 32.000000 32.000000 32.000000 32.000000 32.000000 32.000000 32.000000 32.000000 32.000000 32.000000 32.000000 32.000000 32.000000 32.000000 32.000000 32.000000 32.000000 32.000000 32.000000 32.000000 32.000000 32.000000 32.000000 32.000000 32.000000 32.000000 32.000000 32.000000 32.000000 32.000000 32.000000 32.000000 32.000000 32.000000 32.000000 32.000000 32.000000 32.000000 32.000000 32.000000 32.000000 32.000000 32.000000
32.377778 32.406024 32.434276 32.462543 32.490830 32.519146 32.547494 32.575884 32.604320 32.632809 32.661354 32.689963 32.718638 32.747386 32.776208 32.805109 32.834088 32.863152 32.892297 32.921527 32.950839 32.980236 33.009709 33.039264 33.068889 33.098586 33.128344 33.158162 33.188027 33.217937 33.247876 33.277840 33.307811 33.337784 33.367739 33.397667 33.427548 33.457371 33.487113 33.516763 33.546296 33.575698 33.604942 33.634015 33.662888 33.691546 33.719959 33.748112 33.775973 33.803528 33.830743 33.857604 33.884079 33.910151 33.935790 33.960980 33.985690 34.009905 34.033597 34.056749 34.079336 34.101343 34.122744 34.143527 34.163668 34.183156 34.201970 34.220099 34.237524 34.254237 34.270221 34.285468 34.299963 34.313702 34.326671 34.338865 34.350275 34.360896 34.370719 34.379743 34.387960 34.395368 34.401961 34.407740 34.412698 34.416836 34.420151 34.422642 34.424308 34.425149 34.425164 34.424353 34.422717 34.420257 34.416973 34.412867 34.407942 34.402199 34.395641 34.388270 34.380093 34.371111 34.361331 34.350756 34.339395 34.327252 34.314338 34.300657 34.286223 34.271040 34.255126 34.238486 34.221138 34.203091 34.184364 34.164968 34.144924 34.124243 34.102950 34.081058 34.058592 34.035566 34.012009 33.987934 33.963372 33.938338 33.912862 33.886961 33.860665 33.833992 33.806973 33.779625 33.751978 33.724049 33.695870 33.667456 33.638838 33.610029 33.581060 33.551944 33.522709 33.493367 33.463946 33.434454 33.404918 33.375345 33.345760 33.316168 33.286591 33.257033 33.227514 33.198037 33.168618 33.139259 33.109975 33.080764 33.051639 33.022598 32.993652 32.964797 32.936040 32.907378 32.878815 32.850347 32.821977 32.793698 32.765512 32.737413 32.709399 32.681463 32.653604 32.625813 32.598087 32.570418 32.542801 32.515227 32.487692 32.460187 32.432704 32.405237 32.377778
32.755556 32.812052 32.868562 32.925100 32.981680 33.038314 33.095018 33.151801 33.208680 33.265661 33.322760 33.379982 33.437342 33.494841 33.552495 33.610301 33.668272 33.726403 33.784707 33.843173 33.901812 33.960610 34.019575 34.078690 34.137958 34.197360 34.256896 34.316541 34.376294 34.436123 34.496024 34.555963 34.615930 34.675888 34.735823 34.795694 34.855483 34.915144 34.974658 35.033973 35.093069 35.151889 35.210410 35.268573 35.326351 35.383684 35.440543 35.496867 35.552622 35.607749 35.662213 35.715952 35.768934 35.821096 35.872405 35.922801 35.972251 36.020697 36.068108 36.114428 36.159628 36.203654 36.246481 36.288059 36.328364 36.367350 36.404998 36.441264 36.476133 36.509566 36.541548 36.572048 36.601053 36.628534 36.654483 36.678876 36.701704 36.722948 36.742603 36.760652 36.777091 36.791908 36.805100 36.816657 36.826577 36.834853 36.841485 36.846468 36.849801 36.851483 36.851512 36.849891 36.846618 36.841697 36.835128 36.826916 36.817062 36.805574 36.792454 36.777712 36.761352 36.743385 36.723818 36.702666 36.679935 36.655645 36.629806 36.602439 36.573557 36.543187 36.511343 36.478056 36.443342 36.407239 36.369766 36.330963 36.290852 36.249479 36.206869 36.163071 36.118113 36.072047 36.024903 35.976739 35.927584 35.877499 35.826516 35.774697 35.722074 35.668710 35.614639 35.559924 35.504598 35.448723 35.392332 35.335487 35.278217 35.220583 35.162613 35.104365 35.045864 34.987166 34.928292 34.869296 34.810194 34.751037 34.691838 34.632643 34.573463 34.514338 34.455276 34.396313 34.337453 34.278727 34.220137 34.161708 34.103440 34.045353 33.987443 33.929727 33.872198 33.814869 33.757730 33.700790 33.644037 33.587476 33.531093 33.474891 33.418854 33.362979 33.307252 33.251667 33.196208 33.140867 33.085626 33.030476 32.975400 32.920386 32.865417 32.810479 32.755556
33.133333 33.218089 33.302865 33.387684 33.472565 33.557530 33.642597 33.727787 33.813115 33.898604 33.984264 34.070116 34.156168 34.242439 34.328932 34.415666 34.502637 34.589863 34.677333 34.765064 34.853040 34.941273 35.029740 35.118451 35.207377 35.296522 35.385852 35.475366 35.565023 35.654817 35.744700 35.834663 35.924649 36.014643 36.104585 36.194452 36.284177 36.373734 36.463049 36.552091 36.640780 36.729082 36.816911 36.904229 36.990947 37.077021 37.162361 37.246921 37.330607 37.413371 37.495119 37.575802 37.655326 37.733641 37.810654 37.886317 37.960540 38.033275 38.104436 38.173978 38.241819 38.307916 38.372193 38.434613 38.495103 38.553631 38.610130 38.664572 38.716899 38.767086 38.815080 38.860861 38.904385 38.945635 38.984571 39.021182 39.055435 39.087319 39.116809 39.143897 39.168561 39.190798 39.210589 39.227932 39.242815 39.255235 39.265184 39.272662 39.277662 39.280185 39.280230 39.277796 39.272887 39.265501 39.255646 39.243323 39.228540 39.211300 39.191616 39.169492 39.144946 39.117982 39.088623 39.056877 39.022770 38.986314 38.947541 38.906465 38.863125 38.817538 38.769751 38.719783 38.667688 38.613492 38.557252 38.499000 38.438801 38.376690 38.312737 38.246983 38.179504 38.110343 38.039584 37.967270 37.893492 37.818295 37.741771 37.663969 37.584984 37.504864 37.423706 37.341558 37.258517 37.174630 37.089991 37.004649 36.918693 36.832169 36.745166 36.657723 36.569925 36.481809 36.393455 36.304895 36.216202 36.127403 36.038568 35.949717 35.860912 35.772170 35.683546 35.595050 35.506732 35.418597 35.330686 35.243001 35.155576 35.068406 34.981522 34.894913 34.808602 34.722577 34.636853 34.551414 34.466271 34.381405 34.296819 34.212493 34.128426 34.044595 33.960995 33.877600 33.794402 33.711374 33.628505 33.545766 33.463143 33.380610 33.298146 33.215728 33.133333
33.511111 33.624139 33.737196 33.850308 33.963507 34.076814 34.190261 34.303869 34.417669 34.531676 34.645921 34.760414 34.875186 34.990240 35.105605 35.221278 35.337285 35.453618 35.570297 35.687307 35.804666 35.922349 36.040370 36.158695 36.277334 36.396244 36.515428 36.634836 36.754463 36.874251 36.994187 37.114205 37.234286 37.354353 37.474380 37.594283 37.714029 37.833524 37.952730 38.071543 38.189920 38.307751 38.424985 38.541508 38.657263 38.772131 38.886051 38.998901 39.110616 39.221072 39.330203 39.437882 39.544044 39.648564 39.751375 39.852356 39.951441 40.048513 40.143509 40.236316 40.326877 40.415085 40.500886 40.584183 40.664925 40.743024 40.818436 40.891080 40.960919 41.027880 41.091932 41.153012 41.211095 41.266125 41.318083 41.366922 41.412627 41.455158 41.494506 41.530637 41.563545 41.593203 41.619608 41.642739 41.662594 41.679159 41.692432 41.702404 41.709074 41.712440 41.712499 41.709254 41.702704 41.692854 41.679707 41.663271 41.643549 41.620555 41.594294 41.564785 41.532035 41.496069 41.456896 41.414549 41.369039 41.320406 41.268666 41.213867 41.156029 41.095208 41.031431 40.964762 40.895233 40.822917 40.747851 40.670120 40.589765 40.506879 40.421511 40.333760 40.243682 40.151382 40.056921 39.960413 39.861919 39.761561 39.659402 39.555567 39.450122 39.343194 39.234849 39.125215 39.014359 38.902406 38.789422 38.675530 38.560791 38.445327 38.329193 38.212507 38.095320 37.977741 37.859817 37.741651 37.623280 37.504803 37.386249 37.267707 37.149202 37.030811 36.912553 36.794498 36.676655 36.559086 36.441794 36.324831 36.208193 36.091924 35.976013 35.860496 35.745357 35.630623 35.516272 35.402324 35.288753 35.175571 35.062749 34.950291 34.838165 34.726369 34.614869 34.503657 34.392697 34.281975 34.171456 34.061121 33.950934 33.840871 33.730899 33.620990 33.511111
33.888889 34.030208 34.171562 34.312988 34.454518 34.596191 34.738034 34.880086 35.022371 35.164927 35.307770 35.450940 35.594445 35.738323 35.882574 36.027232 36.172292 36.317782 36.463688 36.610035 36.756797 36.903994 37.051591 37.199602 37.347981 37.496733 37.645803 37.795188 37.944821 38.094693 38.244722 38.394893 38.545113 38.695357 38.845521 38.995570 39.145391 39.294941 39.444095 39.592802 39.740928 39.888414 40.035120 40.180977 40.325839 40.469631 40.612203 40.753475 40.893292 41.031571 41.168156 41.302963 41.435835 41.566687 41.695364 41.821785 41.945798 42.067322 42.186214 42.302397 42.415734 42.526155 42.633531 42.737797 42.838836 42.936591 43.030953 43.121874 43.209256 43.293058 43.373194 43.449630 43.522292 43.591151 43.656146 43.717253 43.774421 43.827633 43.876845 43.922046 43.963202 44.000303 44.033324 44.062258 44.087087 44.107807 44.124404 44.136877 44.145218 44.149427 44.149501 44.145442 44.137251 44.124931 44.108491 44.087932 44.063269 44.034507 44.001665 43.964751 43.923793 43.878798 43.829804 43.776822 43.719897 43.659047 43.594325 43.525754 43.453399 43.377287 43.297495 43.214058 43.127062 43.036551 42.942622 42.845326 42.744773 42.641018 42.534184 42.424335 42.311601 42.196053 42.077830 41.957008 41.833736 41.708092 41.580230 41.450234 41.318259 41.184391 41.048789 40.911537 40.772794 40.632643 40.491241 40.348668 40.205077 40.060543 39.915214 39.769158 39.622519 39.475355 39.327803 39.179913 39.031813 38.883544 38.735224 38.586886 38.438635 38.290498 38.142568 37.994861 37.847460 37.700372 37.553669 37.407349 37.261473 37.116032 36.971074 36.826583 36.682598 36.539095 36.396102 36.253591 36.111580 35.970035 35.828964 35.688332 35.548136 35.408338 35.268929 35.129866 34.991135 34.852691 34.714512 34.576555 34.438792 34.301180 34.163685 34.026267 33.888889
34.266667 34.436298 34.605973 34.775732 34.945621 35.115677 35.285947 35.456460 35.627266 35.798387 35.969870 36.141732 36.314019 36.486736 36.659927 36.833589 37.007762 37.182431 37.357631 37.533337 37.709578 37.886317 38.063575 38.241302 38.419512 38.598143 38.777198 38.956603 39.136351 39.316353 39.496594 39.676971 39.857456 40.037935 40.218370 40.398630 40.578669 40.758344 40.937596 41.116272 41.294303 41.471526 41.647862 41.823139 41.997270 42.170077 42.341465 42.511249 42.679333 42.845528 43.009732 43.171756 43.331498 43.488770 43.643471 43.795416 43.944506 44.090563 44.233493 44.373125 44.509371 44.642072 44.771144 44.896440 45.017887 45.135349 45.248762 45.358002 45.463016 45.563694 45.659991 45.751811 45.839117 45.921827 45.999913 46.073305 46.141982 46.205885 46.264998 46.319277 46.368709 46.413257 46.452916 46.487656 46.517474 46.542350 46.562281 46.577256 46.587272 46.592325 46.592415 46.587541 46.577705 46.562914 46.543170 46.518487 46.488868 46.454334 46.414891 46.370567 46.321370 46.267340 46.208487 46.144860 46.076475 46.003392 45.925632 45.843268 45.756329 45.664899 45.569015 45.468774 45.364224 45.255475 45.142582 45.025671 44.904806 44.780125 44.651702 44.519688 44.384165 44.245294 44.103167 43.957954 43.809751 43.658739 43.505016 43.348771 43.190105 43.029208 42.866183 42.701222 42.534426 42.365987 42.196002 42.024660 41.852053 41.678364 41.503679 41.328174 41.151926 40.975102 40.797771 40.620089 40.442115 40.263992 40.085769 39.907578 39.729455 39.551520 39.373798 39.196394 39.019323 38.842677 38.666461 38.490751 38.315543 38.140901 37.966810 37.793321 37.620412 37.448120 37.276415 37.105324 36.934809 36.764886 36.595512 36.426691 36.258378 36.090565 35.923203 35.756278 35.589737 35.423558 35.257687 35.092095 34.926728 34.761550 34.596510 34.431565 34.266667
34.644444 34.842414 35.040434 35.238556 35.436826 35.635300 35.834016 36.033031 36.232376 36.432108 36.632250 36.832857 37.033944 37.235561 37.437712 37.640447 37.843754 38.047679 38.252199 38.457351 38.663101 38.869476 39.076429 39.283978 39.492059 39.700683 39.909770 40.119319 40.329235 40.539504 40.750016 40.960744 41.171563 41.382433 41.593213 41.803851 42.014189 42.224163 42.433602 42.642430 42.850462 43.057610 43.263678 43.468568 43.672075 43.874092 44.074405 44.272902 44.469363 44.663671 44.855603 45.045041 45.231762 45.415646 45.596474 45.774128 45.948395 46.119161 46.286222 46.449469 46.608709 46.763842 46.914687 47.061153 47.203074 47.340370 47.472890 47.600563 47.723255 47.840908 47.953403 48.060692 48.162672 48.259305 48.350505 48.436241 48.516441 48.591084 48.660110 48.723504 48.781219 48.833244 48.879544 48.920112 48.954921 48.983968 49.007234 49.024719 49.036411 49.042311 49.042415 49.036724 49.025242 49.007972 48.984924 48.956101 48.921524 48.881197 48.835148 48.783384 48.725944 48.662838 48.594117 48.519795 48.439935 48.354558 48.263740 48.167511 48.065959 47.959124 47.847111 47.729968 47.607816 47.480716 47.348803 47.212149 47.070907 46.925158 46.775071 46.620738 46.462341 46.299983 46.133858 45.964077 45.790845 45.614279 45.434592 45.251906 45.066440 44.878317 44.687760 44.494891 44.299933 44.103005 43.904330 43.704020 43.502293 43.299254 43.095113 42.889968 42.684018 42.477351 42.270154 42.062503 41.854574 41.646430 41.438232 41.230029 41.021969 40.814087 40.606516 40.399277 40.192487 39.986156 39.780382 39.575165 39.370588 39.166638 38.963382 38.760798 38.558938 38.357769 38.157330 37.957580 37.758542 37.560171 37.362476 37.165405 36.968957 36.773075 36.577747 36.382911 36.188547 35.994591 35.801013 35.607750 35.414762 35.221989 35.029383 34.836886 34.644444
35.022222 35.248559 35.474956 35.701467 35.928155 36.155070 36.382275 36.609812 36.837746 37.066110 37.294968 37.524342 37.754294 37.984833 38.216020 38.447850 38.680377 38.913585 39.147519 39.382148 39.617511 39.853560 40.090323 40.327736 40.565817 40.804485 41.043743 41.283494 41.523729 41.764331 42.005277 42.246432 42.487759 42.729105 42.970417 43.211523 43.452359 43.692734 43.932568 44.171656 44.409905 44.647094 44.883118 45.117744 45.350855 45.582209 45.811679 46.039017 46.264088 46.486639 46.706532 46.923512 47.137439 47.348060 47.555236 47.758719 47.958375 48.153963 48.345354 48.532320 48.714741 48.892401 49.065190 49.232910 49.395462 49.552664 49.704429 49.850596 49.991089 50.125766 50.254566 50.377362 50.494107 50.604692 50.709080 50.807182 50.898968 50.984365 51.063353 51.135871 51.201908 51.261415 51.314386 51.360784 51.400605 51.433824 51.460438 51.480433 51.493807 51.500553 51.500672 51.494164 51.481030 51.461280 51.434914 51.401952 51.362395 51.316272 51.263588 51.204379 51.138656 51.066467 50.987827 50.902797 50.811398 50.713708 50.609755 50.499631 50.383375 50.261098 50.132848 49.998754 49.858878 49.713366 49.562293 49.405825 49.244049 49.077149 48.905225 48.728479 48.547022 48.361071 48.170749 47.976287 47.777814 47.575574 47.369702 47.160450 46.947957 46.732480 46.514158 46.293251 46.069898 45.844354 45.616755 45.387352 45.156274 44.923765 44.689943 44.455044 44.219173 43.982555 43.745282 43.507564 43.269481 43.031225 42.792862 42.554567 42.316391 42.078492 41.840904 41.603768 41.367104 41.131032 40.895560 40.660789 40.426713 40.193415 39.960876 39.729163 39.498245 39.268171 39.038901 38.810467 38.582821 38.355981 38.129889 37.904550 37.679901 37.455933 37.232579 37.009817 36.787577 36.565828 36.344498 36.123546 35.902900 35.682510 35.462307 35.242233 35.022222
35.400000 35.654738 35.909541 36.164480 36.419613 36.675013 36.930732 37.186844 37.443391 37.700447 37.958043 38.216253 38.475093 38.734634 38.994881 39.255897 39.517672 39.780263 40.043644 40.307864 40.572878 40.838726 41.105345 41.372761 41.640893 41.909756 42.179247 42.449365 42.719990 42.991103 43.262564 43.534339 43.806265 44.078293 44.350238 44.622034 44.893477 45.164485 45.434835 45.704427 45.973022 46.240505 46.506621 46.771242 47.034100 47.295056 47.553831 47.810277 48.064108 48.315169 48.563172 48.807958 49.049238 49.286854 49.520520 49.750081 49.975260 50.195906 50.411754 50.622661 50.828377 51.028770 51.223606 51.412767 51.596038 51.773314 51.944402 52.109211 52.267568 52.419399 52.564553 52.702968 52.834515 52.959146 53.076751 53.187295 53.290686 53.386900 53.475861 53.557554 53.631920 53.698947 53.758591 53.810847 53.855681 53.893090 53.923053 53.945569 53.960625 53.968221 53.968355 53.961026 53.946240 53.923998 53.894315 53.857193 53.812657 53.760710 53.701387 53.634695 53.560682 53.479360 53.390789 53.294988 53.192033 53.081950 52.964834 52.840722 52.709725 52.571892 52.427357 52.276181 52.118519 51.954446 51.784137 51.607686 51.425287 51.237048 51.043185 50.843820 50.639188 50.429423 50.214778 49.995398 49.771550 49.543387 49.311188 49.075112 48.835445 48.592349 48.346115 48.096902 47.845004 47.590575 47.333906 47.075144 46.814574 46.552333 46.288695 46.023787 45.757868 45.491054 45.223587 44.955568 44.687222 44.418631 44.150005 43.881409 43.613029 43.344916 43.077235 42.810019 42.543414 42.277434 42.012205 41.747726 41.484101 41.221314 40.959451 40.698481 40.438470 40.179376 39.921245 39.664026 39.407747 39.152346 38.897836 38.644148 38.391278 38.139153 37.887755 37.637005 37.386872 37.137277 36.888176 36.639489 36.391163 36.143118 35.895293 35.647609 35.400000
35.777778 36.060952 36.344202 36.627598 36.911222 37.195135 37.479422 37.764134 38.049355 38.335128 38.621534 38.908603 39.196415 39.484984 39.774384 40.064615 40.355744 40.647752 40.940699 41.234548 41.529347 41.825039 42.121660 42.419133 42.717480 43.016600 43.316501 43.617060 43.918268 44.219978 44.522163 44.824653 45.127403 45.430220 45.733038 46.035643 46.337950 46.639721 46.940854 47.241091 47.540312 47.838240 48.134737 48.429513 48.722415 49.013138 49.301519 49.587242 49.870136 50.149878 50.426291 50.699052 50.967980 51.232756 51.493198 51.748995 51.999971 52.245824 52.486387 52.721373 52.950625 53.173874 53.390979 53.601690 53.805881 54.003325 54.193913 54.377441 54.553819 54.722866 54.884509 55.038591 55.185054 55.323766 55.454683 55.577694 55.692768 55.799814 55.898811 55.989687 56.072428 56.146980 56.213333 56.271448 56.321320 56.362920 56.396247 56.421283 56.438029 56.446475 56.446623 56.438473 56.422027 56.397295 56.364278 56.322998 56.273455 56.215683 56.149686 56.075507 55.993156 55.902692 55.804128 55.697540 55.582950 55.460451 55.330077 55.191941 55.046088 54.892653 54.731697 54.563377 54.387771 54.205059 54.015337 53.818809 53.615587 53.405900 53.189877 52.967769 52.739720 52.506004 52.266777 52.022331 51.772832 51.518589 51.259776 50.996712 50.729575 50.458692 50.184243 49.906556 49.625809 49.342328 49.056285 48.768002 48.477640 48.185510 47.891764 47.596699 47.300450 47.003301 46.705370 46.406920 46.108054 45.809013 45.509881 45.210878 44.912067 44.613647 44.315661 44.018285 43.721542 43.425584 43.130417 42.836170 42.542831 42.250506 41.959168 41.668899 41.379660 41.091511 40.804399 40.518364 40.233343 39.949357 39.666333 39.384274 39.103100 38.822798 38.543282 38.264524 37.986435 37.708973 37.432048 37.155604 36.879552 36.603827 36.328340 36.053019 35.777778
36.155556 36.467205 36.778936 37.090837 37.402982 37.715463 38.028344 38.341719 38.655641 38.970203 39.285445 39.601458 39.918268 40.235961 40.554544 40.874099 41.194615 41.516164 41.838716 42.162332 42.486961 42.812652 43.139330 43.467030 43.795654 44.125220 44.455606 44.786812 45.118689 45.451218 45.784227 46.117673 46.451360 46.785225 47.119043 47.452731 47.786040 48.118866 48.450935 48.782122 49.112133 49.440822 49.767877 50.093134 50.416262 50.737086 51.055262 51.370599 51.682747 51.991507 52.296523 52.597592 52.894357 53.186617 53.474019 53.756364 54.033312 54.304669 54.570109 54.829451 55.082387 55.328750 55.568254 55.800748 56.025972 56.243794 56.453977 56.656411 56.850885 57.037310 57.215501 57.385387 57.546812 57.699719 57.843979 57.979551 58.106328 58.224281 58.333325 58.433443 58.524566 58.606686 58.679751 58.743756 58.798666 58.844478 58.881168 58.908737 58.927171 58.936470 58.936633 58.927658 58.909553 58.882318 58.845969 58.800507 58.745960 58.682330 58.609657 58.527946 58.437252 58.337586 58.229018 58.111567 57.985322 57.850313 57.706650 57.554374 57.393621 57.224446 57.047009 56.861384 56.667758 56.466222 56.256991 56.040176 55.816017 55.584648 55.346334 55.101226 54.849614 54.591667 54.327697 54.057885 53.782565 53.501927 53.216318 52.925939 52.631146 52.332141 52.029287 51.722786 51.413000 51.100127 50.784525 50.466383 50.146050 49.823702 49.499676 49.174133 48.847393 48.519601 48.191056 47.861882 47.532359 47.202589 46.872828 46.543157 46.213806 45.884836 45.556449 45.228685 44.901721 44.575576 44.250402 43.926195 43.603083 43.281045 42.960183 42.640458 42.321949 42.004604 41.688476 41.373500 41.059708 40.747025 40.435462 40.124934 39.815433 39.506869 39.199215 38.892375 38.586310 38.280917 37.976144 37.671890 37.368087 37.064636 36.761460 36.458462 36.155556
36.533333 36.873497 37.213755 37.554195 37.894914 38.235992 38.577531 38.919596 39.262292 39.605670 39.949833 40.294817 40.640722 40.987568 41.335445 41.684357 42.034386 42.385514 42.737813 43.091241 43.445860 43.801602 44.158515 44.516505 44.875603 45.235690 45.596775 45.958715 46.321496 46.684946 47.049032 47.413552 47.778449 48.143493 48.508604 48.873523 49.238146 49.602188 49.965521 50.327834 50.688978 51.048618 51.406584 51.762522 52.116243 52.467375 52.815716 53.160881 53.502656 53.840650 54.174638 54.504229 54.829196 55.149149 55.463863 55.772957 56.076213 56.373262 56.663897 56.947769 57.224684 57.494316 57.756490 58.010904 58.257405 58.495719 58.725714 58.947147 59.159908 59.363784 59.558686 59.744432 59.920954 60.088097 60.245812 60.393971 60.532540 60.661417 60.780579 60.889946 60.989505 61.079195 61.159010 61.228906 61.288880 61.338902 61.378972 61.409072 61.429202 61.439355 61.439532 61.429733 61.409960 61.380224 61.340524 61.290884 61.231303 61.161817 61.082428 60.993183 60.894091 60.785217 60.666573 60.538244 60.400254 60.252708 60.095643 59.929189 59.753398 59.568427 59.374347 59.171343 58.959506 58.739053 58.510095 58.272879 58.027539 57.774353 57.513475 57.245213 56.969741 56.687391 56.398358 56.102996 55.801513 55.494283 55.181523 54.863623 54.540805 54.213467 53.881835 53.546307 53.207107 52.864632 52.519097 52.170891 51.820218 51.467456 51.112791 50.756585 50.399008 50.040400 49.680909 49.320854 48.960359 48.599717 48.239030 47.878563 47.518394 47.158760 46.799715 46.441465 46.084044 45.727628 45.372227 45.017990 44.664906 44.313096 43.962528 43.613299 43.265358 42.918776 42.573486 42.229535 41.886845 41.545437 41.205221 40.866200 40.528274 40.191425 39.855547 39.520605 39.186488 38.853144 38.520460 38.188371 37.856764 37.525560 37.194649 36.863942 36.533333
36.911111 37.279834 37.648656 38.017686 38.387013 38.756750 39.126975 39.497803 39.869299 40.241577 40.614688 40.988740 41.363769 41.739879 42.117083 42.495478 42.875058 43.255908 43.637997 44.021400 44.406060 44.792035 45.179244 45.567726 45.957372 46.348201 46.740074 47.132990 47.526778 47.921415 48.316697 48.712577 49.108820 49.505352 49.901908 50.298387 50.694494 51.090101 51.484884 51.878690 52.271168 52.662142 53.051234 53.438248 53.822786 54.204631 54.583371 54.958773 55.330413 55.698049 56.061249 56.419766 56.773169 57.121210 57.463464 57.799686 58.129466 58.452567 58.768598 59.077336 59.378412 59.671623 59.956627 60.233242 60.501158 60.760215 61.010137 61.250789 61.481927 61.703443 61.915127 62.116892 62.308562 62.490072 62.661276 62.822129 62.972512 63.112396 63.241685 63.360366 63.468364 63.565672 63.652236 63.728056 63.793091 63.847346 63.890793 63.923436 63.945261 63.956271 63.956462 63.945834 63.924395 63.892144 63.849099 63.795256 63.730647 63.655269 63.569165 63.472338 63.364846 63.246697 63.117968 62.978676 62.828920 62.668730 62.498230 62.317464 62.126586 61.925659 61.714866 61.494293 61.264155 61.024563 60.775764 60.517895 60.251237 59.975951 59.692352 59.400622 59.101110 58.794020 58.479725 58.158450 57.830591 57.496386 57.156251 56.810432 56.459358 56.103280 55.742633 55.377667 55.008818 54.636328 54.260629 53.881952 53.500718 53.117142 52.731627 52.344373 51.955760 51.565966 51.175347 50.784056 50.392424 50.000576 49.608815 49.217240 48.826122 48.435533 48.045714 47.656711 47.268732 46.881799 46.496087 46.111596 45.728469 45.346682 44.966352 44.587434 44.210014 43.834029 43.459540 43.086467 42.714846 42.344583 41.975689 41.608060 41.241686 40.876453 40.512330 40.149200 39.787010 39.425641 39.065025 38.705039 38.345602 37.986593 37.627918 37.269458 36.911111
37.288889 37.686212 38.083649 38.481305 38.879298 39.277725 39.676706 40.076325 40.476703 40.877908 41.280061 41.683210 42.087473 42.492878 42.899534 43.307449 43.716722 44.127336 44.539379 44.952806 45.367690 45.783959 46.201667 46.620714 47.041133 47.462792 47.885702 48.309697 48.734766 49.160707 49.587484 50.014860 50.442771 50.870947 51.299293 51.727508 52.155466 52.582832 53.009454 53.434966 53.859186 54.281721 54.702363 55.120695 55.536486 55.949297 56.358880 56.764779 57.166731 57.564272 57.957129 58.344834 58.727111 59.103495 59.473711 59.837307 60.194015 60.543399 60.885205 61.219020 61.544610 61.861588 62.169743 62.468723 62.758341 63.038279 63.308380 63.568363 63.818098 64.057341 64.285991 64.503839 64.710811 64.906732 65.091550 65.265123 65.427418 65.578322 65.717817 65.845815 65.962308 66.067233 66.160587 66.242325 66.312450 66.370931 66.417772 66.452955 66.476483 66.488348 66.488552 66.477098 66.453985 66.419224 66.372813 66.314775 66.245107 66.163843 66.070983 65.966576 65.850625 65.723199 65.584307 65.434039 65.272418 65.099557 64.915495 64.720376 64.514255 64.297308 64.069616 63.831388 63.582729 63.323887 63.054994 62.776335 62.488070 62.190522 61.883877 61.568495 61.244588 60.912548 60.572609 60.225192 59.870551 59.509128 59.141192 58.767201 58.387431 58.002354 57.612245 57.217580 56.818631 56.415870 56.009560 55.600163 55.187927 54.773299 54.356508 53.937979 53.517920 53.096730 52.674591 52.251875 51.828733 51.405509 50.982324 50.559489 50.137095 49.715419 49.294526 48.874654 48.455841 48.038292 47.622017 47.207187 46.793788 46.381957 45.971657 45.562993 45.155908 44.750476 44.346621 43.944391 43.543691 43.144544 42.746842 42.350582 41.955646 41.562008 41.169543 40.778203 40.387859 39.998443 39.609824 39.221917 38.834592 38.447750 38.061260 37.675015 37.288889
37.666667 38.092637 38.518727 38.945064 39.371757 39.798939 40.226707 40.655194 41.084483 41.514707 41.945930 42.378282 42.811808 43.246631 43.682773 44.120348 44.559355 44.999894 45.441937 45.885571 46.330736 46.777503 47.225782 47.675622 48.126899 48.579640 49.033687 49.489041 49.945508 50.403060 50.861467 51.320673 51.780409 52.240587 52.700903 53.161237 53.621246 54.080780 54.539462 54.997109 55.453311 55.907857 56.360307 56.810422 57.257738 57.701992 58.142700 58.579579 59.012132 59.440063 59.862866 60.280238 60.691674 61.096869 61.495324 61.886743 62.270641 62.646733 63.014558 63.373847 63.724168 64.065278 64.396777 64.718449 65.029933 65.331043 65.621458 65.901024 66.169461 66.426646 66.672340 66.906451 67.128779 67.339257 67.537722 67.724132 67.898357 68.060371 68.210075 68.347458 68.472444 68.585033 68.685171 68.772862 68.848068 68.910797 68.961025 68.998759 69.023985 69.036709 69.036928 69.024642 68.999858 68.962574 68.912806 68.850550 68.775832 68.688648 68.589039 68.477002 68.352596 68.215823 68.066764 67.905429 67.731925 67.546278 67.348621 67.139000 66.917583 66.684437 66.439767 66.183668 65.916383 65.638038 65.348917 65.049175 64.739141 64.419000 64.089120 63.749718 63.401200 63.043810 62.677988 62.304001 61.922318 61.533225 61.137213 60.734580 60.325832 59.911273 59.491416 59.066564 58.637230 58.203710 57.766510 57.325912 56.882407 56.436257 55.987935 55.537680 55.085937 54.632919 54.179042 53.724488 53.269641 52.814652 52.359869 51.905411 51.451589 50.998490 50.546388 50.095338 49.645576 49.197129 48.750195 48.304770 47.861019 47.418912 46.978576 46.539959 46.103156 45.668091 45.234828 44.803275 44.373464 43.945288 43.518751 43.093732 42.670213 42.248060 41.827232 41.407590 40.989069 40.571528 40.154883 39.738990 39.323750 38.909019 38.494686 38.080610 37.666667