# vtk DataFile Version 3.0
Steady-state temperature (Jacobi)
ASCII
DATASET STRUCTURED_POINTS
DIMENSIONS 181 181 1
ORIGIN 0.0 0.0 0.0
SPACING 0.05 0.05 1.0
POINT_DATA 32761
SCALARS Temperature float 1
LOOKUP_TABLE default
32.000000 32.000000 32.000000 32.000000 32.000000 32.000000 32.000000 32.000000
32.000000 32.000000 32.000000 32.000000 32.000000 32.000000 32.000000 32.000000
32.000000 32.000000 32.000000 32.000000 32.000000 32.000000 32.000000 32.000000
32.000000 32.000000 32.000000 32.000000 32.000000 32.000000 32.000000 32.000000
32.000000 32.000000 32.000000 32.000000 32.000000 32.000000 32.000000 32.000000
32.000000 32.000000 32.000000 32.000000 32.000000 32.000000 32.000000 32.000000
32.000000 32.000000 32.000000 32.000000 32.000000 32.000000 32.000000 32.000000
32.000000 32.000000 32.000000 32.000000 32.000000 32.000000 32.000000 32.000000
32.000000 32.000000 32.000000 32.000000 32.000000 32.000000 32.000000 32.000000
32.000000 32.000000 32.000000 32.000000 32.000000 32.000000 32.000000 32.000000
32.000000 32.000000 32.000000 32.000000 32.000000 32.000000 32.000000 32.000000
32.000000 32.000000 32.000000 32.000000 32.000000 32.000000 32.000000 32.000000
32.000000 32.000000 32.000000 32.000000 32.000000 32.000000 32.000000 32.000000
32.000000 32.000000 32.000000 32.000000 32.000000 32.000000 32.000000 32.000000
32.000000 32.000000 32.000000 32.000000 32.000000 32.000000 32.000000 32.000000
32.000000 32.000000 32.000000 32.000000 32.000000 32.000000 32.000000 32.000000
32.000000 32.000000 32.000000 32.000000 32.000000 32.000000 32.000000 32.000000
32.000000 32.000000 32.000000 32.000000 32.000000 32.000000 32.000000 32.000000
32.000000 32.000000 32.000000 32.000000 32.000000 32.000000 32.000000 32.000000
32.000000 32.000000 32.000000 32.000000 32.000000 32.000000 32.000000 32.000000
32.000000 32.000000 32.000000 32.000000 32.000000 32.000000 32.000000 32.000000
32.000000 32.000000 32.000000 32.000000 32.000000 32.000000 32.000000 32.000000
32.000000 32.000000 32.000000 32.000000 32.000000
32.377778 32.408784 32.439794 32.470812 32.501840 32.532882 32.563941 32.595022
32.626125 32.657255 32.688413 32.719601 32.750821 32.782076 32.813363 32.844686
32.876043 32.907435 32.938858 32.970313 33.001796 33.033306 33.064836 33.096385
33.127945 33.159513 33.191080 33.222640 33.254183 33.285703 33.317186 33.348626
33.380007 33.411321 33.442551 33.473686 33.504708 33.535605 33.566358 33.596953
33.627368 33.657589 33.687593 33.717364 33.746879 33.776121 33.805066 33.833694
33.861984 33.889914 33.917462 33.944607 33.971327 33.997601 34.023406 34.048724
34.073531 34.097809 34.121537 34.144697 34.167269 34.189236 34.210580 34.231287
34.251338 34.270720 34.289418 34.307421 34.324714 34.341287 34.357128 34.372229
34.386579 34.400173 34.413000 34.425055 34.436331 34.446824 34.456529 34.465441
34.473556 34.480872 34.487386 34.493095 34.497998 34.502093 34.505378 34.507853
34.509518 34.510371 34.510413 34.509644 34.508064 34.505673 34.502474 34.498466
34.493651 34.488031 34.481609 34.474387 34.466367 34.457553 34.447949 34.437560
34.426390 34.414445 34.401732 34.388256 34.374027 34.359052 34.343341 34.326903
34.309750 34.291892 34.273344 34.254117 34.234228 34.213689 34.192518 34.170730
34.148345 34.125377 34.101849 34.077778 34.053185 34.028089 34.002513 33.976476
33.950001 33.923108 33.895821 33.868160 33.840148 33.811806 33.783157 33.754219
33.725017 33.695568 33.665895 33.636016 33.605951 33.575717 33.545334 33.514816
33.484183 33.453448 33.422628 33.391734 33.360782 33.329783 33.298749 33.267690
33.236618 33.205539 33.174464 33.143398 33.112350 33.081324 33.050326 33.019359
32.988429 32.957537 32.926686 32.895877 32.865112 32.834390 32.803713 32.773079
32.742487 32.711936 32.681424 32.650948 32.620506 32.590094 32.559710 32.529350
32.499011 32.468688 32.438378 32.408076 32.377778
32.755556 32.817570 32.879592 32.941628 33.003686 33.065772 33.127893 33.190055
33.252265 33.314527 33.376846 33.439225 33.501670 33.564181 33.626762 33.689412
33.752132 33.814919 33.877773 33.940689 34.003663 34.066688 34.129759 34.192864
34.255996 34.319139 34.382285 34.445415 34.508516 34.571565 34.634549 34.697440
34.760220 34.822860 34.885339 34.947623 35.009688 35.071499 35.133026 35.194231
35.255085 35.315544 35.375576 35.435137 35.494192 35.552694 35.610608 35.667886
35.724489 35.780370 35.835490 35.889801 35.943264 35.995832 36.047466 36.098119
36.147756 36.196330 36.243807 36.290144 36.335307 36.379258 36.421964 36.463391
36.503509 36.542286 36.579697 36.615712 36.650311 36.683466 36.715159 36.745369
36.774079 36.801271 36.826933 36.851048 36.873607 36.894597 36.914010 36.931837
36.948071 36.962705 36.975735 36.987155 36.996962 37.005153 37.011725 37.016676
37.020006 37.021712 37.021796 37.020258 37.017097 37.012315 37.005915 36.997898
36.988267 36.977026 36.964179 36.949731 36.933688 36.916057 36.896845 36.876063
36.853717 36.829822 36.804388 36.777431 36.748963 36.719005 36.687572 36.654687
36.620368 36.584643 36.547532 36.509066 36.469271 36.428179 36.385819 36.342228
36.297437 36.251486 36.204409 36.156248 36.107040 36.056829 36.005653 35.953559
35.900585 35.846780 35.792181 35.736839 35.680791 35.624086 35.566763 35.508868
35.450440 35.391523 35.332154 35.272377 35.212225 35.151740 35.090952 35.029902
34.968615 34.907130 34.845471 34.783670 34.721749 34.659739 34.597656 34.535528
34.473369 34.411202 34.349039 34.286899 34.224791 34.162732 34.100726 34.038787
33.976918 33.915128 33.853419 33.791797 33.730261 33.668815 33.607455 33.546184
33.484996 33.423891 33.362863 33.301909 33.241022 33.180198 33.119428 33.058707
32.998027 32.937380 32.876757 32.816152 32.755556
33.133333 33.226359 33.319395 33.412454 33.505544 33.598678 33.691865 33.785114
33.878434 33.971834 34.065318 34.158897 34.252572 34.346349 34.440229 34.534217
34.628308 34.722504 34.816799 34.911190 35.005668 35.100227 35.194851 35.289533
35.384251 35.478995 35.573738 35.668464 35.763142 35.857752 35.952258 36.046633
36.140838 36.234841 36.328596 36.422069 36.515207 36.607972 36.700306 36.792167
36.883493 36.974237 37.064333 37.153732 37.242365 37.330178 37.417100 37.503076
37.588033 37.671914 37.754646 37.836172 37.916418 37.995327 38.072828 38.148864
38.223366 38.296280 38.367541 38.437095 38.504882 38.570854 38.634952 38.697133
38.757345 38.815547 38.871694 38.925749 38.977672 39.027433 39.074995 39.120333
39.163416 39.204224 39.242731 39.278920 39.312769 39.344267 39.373395 39.400145
39.424503 39.446462 39.466011 39.483146 39.497860 39.510149 39.520009 39.527438
39.532433 39.534994 39.535119 39.532810 39.528068 39.520894 39.511291 39.499262
39.484812 39.467945 39.448670 39.426991 39.402920 39.376464 39.347637 39.316450
39.282920 39.247061 39.208895 39.168439 39.125720 39.080759 39.033588 38.984232
38.932728 38.879107 38.823411 38.765675 38.705947 38.644268 38.580690 38.515257
38.448029 38.379053 38.308392 38.236098 38.162238 38.086866 38.010052 37.931853
37.852341 37.771573 37.689624 37.606550 37.522426 37.437310 37.351273 37.264372
37.176679 37.088247 36.999146 36.909425 36.819151 36.728370 36.637145 36.545520
36.453550 36.361276 36.268750 36.176006 36.083091 35.990036 35.896881 35.803653
35.710388 35.617106 35.523838 35.430599 35.337418 35.244303 35.151277 35.058346
34.965528 34.872825 34.780249 34.687800 34.595485 34.503303 34.411255 34.319337
34.227549 34.135883 34.044335 33.952897 33.861562 33.770320 33.679162 33.588076
33.497052 33.406078 33.315142 33.224231 33.133333
33.511111 33.635152 33.759208 33.883293 34.007422 34.131609 34.255867 34.380209
34.504647 34.629190 34.753852 34.878636 35.003553 35.128606 35.253801 35.379137
35.504617 35.630235 35.755992 35.881875 36.007881 36.133992 36.260199 36.386479
36.512819 36.639187 36.765565 36.891916 37.018215 37.144417 37.270492 37.396388
37.522068 37.647474 37.772562 37.897267 38.021539 38.145305 38.268511 38.391078
38.512945 38.634027 38.754259 38.873552 38.991835 39.109016 39.225021 39.339754
39.453140 39.565082 39.675501 39.784300 39.891402 39.996711 40.100150 40.201625
40.301061 40.398369 40.493477 40.586299 40.676769 40.764807 40.850352 40.933329
41.013683 41.091347 41.166273 41.238400 41.307686 41.374079 41.437542 41.498031
41.555515 41.609956 41.661331 41.709607 41.754766 41.796781 41.835640 41.871320
41.903813 41.933101 41.959178 41.982032 42.001658 42.018048 42.031199 42.041107
42.047769 42.051184 42.051351 42.048271 42.041946 42.032377 42.019568 42.003524
41.984250 41.961753 41.936041 41.907125 41.875015 41.839725 41.801269 41.759667
41.714934 41.667098 41.616177 41.562205 41.505206 41.445220 41.382277 41.316423
41.247695 41.176147 41.101822 41.024780 40.945070 40.862763 40.777911 40.690592
40.600866 40.508815 40.414506 40.318025 40.219445 40.118856 40.016333 39.911971
39.805847 39.698058 39.588682 39.477818 39.365543 39.251955 39.137130 39.021166
38.904135 38.786132 38.667226 38.547508 38.427043 38.305917 38.184190 38.061943
37.939229 37.816123 37.692673 37.568946 37.444985 37.320849 37.196576 37.072216
36.947801 36.823376 36.698964 36.574604 36.450313 36.326124 36.202047 36.078108
35.954314 35.830683 35.707217 35.583930 35.460818 35.337889 35.215138 35.092566
34.970164 34.847931 34.725853 34.603926 34.482135 34.360471 34.238918 34.117463
33.996091 33.874787 33.753533 33.632314 33.511111
33.888889 34.043951 34.199032 34.354150 34.509324 34.664571 34.819907 34.975351
35.130915 35.286615 35.442461 35.598466 35.754636 35.910983 36.067505 36.224212
36.381097 36.538164 36.695401 36.852807 37.010363 37.168063 37.325879 37.483800
37.641790 37.799831 37.957879 38.115909 38.273868 38.431722 38.589412 38.746895
38.904102 39.060982 39.217459 39.373474 39.528940 39.683792 39.837935 39.991297
40.143774 40.295287 40.445728 40.595011 40.743022 40.889670 41.034836 41.178428
41.320322 41.460423 41.598609 41.734782 41.868819 42.000624 42.130078 42.257084
42.381528 42.503318 42.622342 42.738515 42.851732 42.961914 43.068962 43.172805
43.273353 43.370542 43.464292 43.554546 43.641233 43.724305 43.803702 43.879381
43.951292 44.019400 44.083663 44.144054 44.200537 44.253093 44.301693 44.346321
44.386956 44.423587 44.456197 44.484779 44.509321 44.529818 44.546263 44.558652
44.566982 44.571252 44.571461 44.567609 44.559699 44.547732 44.531715 44.511650
44.487546 44.459411 44.427256 44.391090 44.350931 44.306791 44.258693 44.206654
44.150702 44.090860 44.027164 43.959642 43.888337 43.813285 43.734539 43.652139
43.566150 43.476619 43.383619 43.287208 43.187466 43.084458 42.978276 42.868993
42.756706 42.641497 42.523471 42.402714 42.279340 42.153440 42.025132 41.894509
41.761695 41.626785 41.489904 41.351149 41.210643 41.068483 40.924792 40.779665
40.633220 40.485548 40.336765 40.186957 40.036232 39.884672 39.732378 39.579424
39.425906 39.271889 39.117460 38.962678 38.807621 38.652338 38.496901 38.341349
38.185746 38.030123 37.874533 37.719002 37.563573 37.408265 37.253113 37.098128
36.943338 36.788746 36.634374 36.480221 36.326298 36.172600 36.019134 35.865888
35.712865 35.560048 35.407434 35.255005 35.102753 34.950656 34.798704 34.646874
34.495149 34.343509 34.191933 34.040400 33.888889
34.266667 34.452757 34.638871 34.825029 35.011256 35.197570 35.383996 35.570550
35.757253 35.944118 36.131166 36.318403 36.505848 36.693501 36.881377 37.069471
37.257792 37.446328 37.635082 37.824036 38.013185 38.202502 38.391977 38.581573
38.771271 38.961024 39.150807 39.340561 39.530252 39.719812 39.909195 40.098324
40.287144 40.475566 40.663526 40.850923 41.037685 41.223702 41.408890 41.593131
41.776332 41.958367 42.139136 42.318503 42.496364 42.672576 42.847029 43.019578
43.190107 43.358469 43.524546 43.688192 43.849287 44.007687 44.163275 44.315907
44.465473 44.611834 44.754883 44.894490 45.030555 45.162955 45.291600 45.416376
45.537202 45.653975 45.766623 45.875054 45.979207 46.079003 46.174387 46.265293
46.351676 46.433480 46.510669 46.583197 46.651035 46.714148 46.772512 46.826100
46.874896 46.918878 46.958035 46.992350 47.021817 47.046424 47.066168 47.081041
47.091042 47.096167 47.096417 47.091792 47.082294 47.067927 47.048695 47.024605
46.995663 46.961883 46.923271 46.879847 46.831621 46.778618 46.720854 46.658361
46.591159 46.519290 46.442780 46.361678 46.276021 46.185868 46.091262 45.992274
45.888957 45.781392 45.669644 45.553803 45.433944 45.310170 45.182564 45.051241
44.916292 44.777841 44.635989 44.490868 44.342586 44.191281 44.037067 43.880087
43.720458 43.558329 43.393816 43.227069 43.058206 42.887375 42.714693 42.540305
42.364323 42.186889 42.008110 41.828121 41.647023 41.464943 41.281974 41.098235
40.913811 40.728811 40.543309 40.357405 40.171164 39.984676 39.797995 39.611200
39.424335 39.237469 39.050637 38.863896 38.677272 38.490812 38.304534 38.118475
37.932645 37.747071 37.561755 37.376716 37.191950 37.007469 36.823261 36.639331
36.455663 36.272254 36.089086 35.906149 35.723420 35.540887 35.358524 35.176313
34.994228 34.812247 34.630343 34.448492 34.266667
34.644444 34.861571 35.078725 35.295933 35.513220 35.730614 35.948137 36.165816
36.383668 36.601717 36.819978 37.038471 37.257203 37.476192 37.695438 37.914953
38.134731 38.354776 38.575074 38.795622 39.016396 39.237387 39.458557 39.679892
39.901341 40.122880 40.344448 40.566009 40.787490 41.008846 41.229990 41.450865
41.671373 41.891445 42.110971 42.329869 42.548018 42.765326 42.981657 43.196911
43.410942 43.623638 43.834846 44.044443 44.252270 44.458196 44.662054 44.863712
45.062996 45.259771 45.453862 45.645130 45.833403 46.018544 46.200382 46.378782
46.553580 46.724646 46.891824 47.054991 47.213999 47.368736 47.519063 47.664879
47.806059 47.942510 48.074123 48.200815 48.322491 48.439080 48.550500 48.656692
48.757586 48.853134 48.943279 49.027984 49.107201 49.180901 49.249048 49.311620
49.368588 49.419939 49.465650 49.505711 49.540108 49.568834 49.591879 49.609241
49.620913 49.626895 49.627186 49.621786 49.610699 49.593927 49.571476 49.543352
49.509567 49.470127 49.425051 49.374349 49.318044 49.256153 49.188707 49.115727
49.037253 48.953314 48.863960 48.769229 48.669182 48.563866 48.453354 48.337705
48.217005 48.091322 47.960758 47.825393 47.685341 47.540693 47.391577 47.238097
47.080390 46.918571 46.752790 46.583169 46.409868 46.233016 46.052781 45.869296
45.682734 45.493233 45.300968 45.106077 44.908737 44.709083 44.507290 44.303492
44.097858 43.890516 43.681630 43.471320 43.259743 43.047010 42.833267 42.618617
42.403196 42.187094 41.970436 41.753302 41.535803 41.318009 41.100018 40.881888
40.663704 40.445512 40.227387 40.009363 39.791501 39.573825 39.356385 39.139196
38.922296 38.705690 38.489406 38.273441 38.057814 37.842513 37.627549 37.412905
37.198581 36.984557 36.770825 36.557361 36.344150 36.131165 35.918386 35.705783
35.493332 35.281002 35.068765 34.856589 34.644444
35.022222 35.270394 35.518598 35.766863 36.015223 36.263705 36.512341 36.761153
37.010173 37.259417 37.508915 37.758676 38.008726 38.259067 38.509720 38.760678
39.011956 39.263537 39.515429 39.767605 40.020063 40.272767 40.525703 40.778822
41.032102 41.285481 41.538924 41.792355 42.045728 42.298952 42.551968 42.804672
43.056990 43.308805 43.560029 43.810530 44.060209 44.308918 44.556545 44.802932
45.047953 45.291438 45.533251 45.773212 46.011177 46.246955 46.480396 46.711304
46.939522 47.164852 47.387133 47.606166 47.821792 48.033812 48.242069 48.446370
48.646563 48.842461 49.033921 49.220765 49.402859 49.580038 49.752178 49.919129
50.080780 50.236994 50.387674 50.532700 50.671987 50.805431 50.932961 51.054489
51.169956 51.279289 51.382442 51.479354 51.569989 51.654300 51.732260 51.803831
51.868996 51.927726 51.980009 52.025823 52.065161 52.098010 52.124365 52.144216
52.157564 52.164403 52.164734 52.158559 52.145878 52.126697 52.101021 52.068858
52.030216 51.985111 51.933552 51.875561 51.811153 51.740357 51.663195 51.579706
51.489917 51.393880 51.291630 51.183230 51.068728 50.948200 50.821706 50.689335
50.551161 50.407289 50.257805 50.102832 49.942468 49.776852 49.606095 49.430350
49.249743 49.064439 48.874575 48.680328 48.481845 48.279314 48.072886 47.862759
47.649088 47.432075 47.211879 46.988703 46.762706 46.534088 46.303008 46.069662
45.834202 45.596819 45.357657 45.116900 44.874683 44.631178 44.386509 44.140837
43.894275 43.646971 43.399024 43.150567 42.901688 42.652506 42.403093 42.153555
41.903951 41.654372 41.404864 41.155502 40.906322 40.657385 40.408713 40.160356
39.912325 39.664657 39.417352 39.170437 38.923903 38.677765 38.432007 38.186634
37.941625 37.696974 37.452655 37.208655 36.964943 36.721499 36.478289 36.235289
35.992461 35.749777 35.507198 35.264692 35.022222
35.400000 35.679226 35.958489 36.237824 36.517265 36.796849 37.076606 37.356571
37.636769 37.917233 38.197980 38.479041 38.760424 39.042155 39.324235 39.606681
39.889485 40.172656 40.456175 40.740042 41.024224 41.308713 41.593463 41.878452
42.163621 42.448936 42.734321 43.019730 43.305072 43.590285 43.875262 44.159927
44.444156 44.727858 45.010893 45.293154 45.574484 45.854763 46.133819 46.411517
46.687671 46.962132 47.234703 47.505223 47.773483 48.039314 48.302499 48.562861
48.820177 49.074266 49.324902 49.571903 49.815043 50.054141 50.288975 50.519368
50.745105 50.966017 51.181899 51.392590 51.597898 51.797677 51.991746 52.179974
52.362199 52.538302 52.708138 52.871607 53.028581 53.178973 53.322676 53.459618
53.589709 53.712891 53.829089 53.938259 54.040342 54.135303 54.223097 54.303699
54.377075 54.443207 54.502070 54.553653 54.597938 54.634920 54.664586 54.686934
54.701957 54.709655 54.710026 54.703072 54.688796 54.667201 54.638295 54.602082
54.558578 54.507790 54.449738 54.384435 54.311909 54.232177 54.145279 54.051239
53.950107 53.841918 53.726733 53.604599 53.475593 53.339773 53.197233 53.048047
52.892323 52.730151 52.561659 52.386951 52.206173 52.019444 51.826930 51.628764
51.425127 51.216167 51.002080 50.783025 50.559211 50.330807 50.098032 49.861062
49.620122 49.375393 49.127103 48.875435 48.620618 48.362832 48.102303 47.839207
47.573765 47.306144 47.036558 46.765165 46.492166 46.217709 45.941982 45.665119
45.387295 45.108630 44.829283 44.549358 44.268999 43.988295 43.707373 43.426306
43.145206 42.864129 42.583171 42.302376 42.021821 41.741538 41.461587 41.181988
40.902788 40.623993 40.345638 40.067717 39.790253 39.513231 39.236662 38.960523
38.684814 38.409506 38.134589 37.860029 37.585808 37.311887 37.038241 36.764829
36.491620 36.218571 35.945646 35.672802 35.400000
35.777778 36.088068 36.398400 36.708813 37.019349 37.330044 37.640941 37.952069
38.263468 38.575163 38.887190 39.199565 39.512319 39.825460 40.139011 40.452971
40.767355 41.082148 41.397358 41.712956 42.028938 42.345263 42.661913 42.978831
43.295989 43.613309 43.930751 44.248220 44.565658 44.882954 45.200034 45.516767
45.833063 46.148772 46.463786 46.777939 47.091105 47.403099 47.713780 48.022946
48.330439 48.636043 48.939587 49.240841 49.539621 49.835687 50.128845 50.418847
50.705492 50.988528 51.267750 51.542904 51.813786 52.080144 52.341775 52.598435
52.849928 53.096019 53.336522 53.571213 53.799921 54.022438 54.238606 54.448235
54.651184 54.847283 55.036409 55.218412 55.393187 55.560605 55.720577 55.872995
56.017788 56.154867 56.284175 56.405640 56.519220 56.624858 56.722525 56.812175
56.893790 56.967335 57.032799 57.090158 57.139404 57.180522 57.213508 57.238353
57.255056 57.263613 57.264024 57.256290 57.240414 57.216402 57.184257 57.143991
57.095609 57.039131 56.974564 56.901937 56.821263 56.732577 56.635902 56.531286
56.418758 56.298380 56.170195 56.034279 55.890688 55.739515 55.580833 55.414753
55.241365 55.060800 54.873166 54.678615 54.477271 54.269307 54.054866 53.834139
53.607287 53.374518 53.136007 52.891980 52.642622 52.388172 52.128827 51.864834
51.596395 51.323765 51.047149 50.766803 50.482933 50.195793 49.905585 49.612559
49.316909 49.018878 48.718649 48.416454 48.112465 47.806901 47.499919 47.191721
46.882451 46.572294 46.261376 45.949864 45.637868 45.325538 45.012963 44.700275
44.387548 44.074895 43.762373 43.450076 43.138045 42.826357 42.515039 42.204151
41.893705 41.583746 41.274274 40.965318 40.656868 40.348940 40.041513 39.734591
39.428145 39.122167 38.816623 38.511494 38.206741 37.902337 37.598237 37.294408
36.990804 36.687386 36.384105 36.080918 35.777778
36.155556 36.496920 36.838330 37.179833 37.521473 37.863296 38.205341 38.547653
38.890265 39.233220 39.576540 39.920264 40.264407 40.609002 40.954050 41.299576
41.645572 41.992051 42.338992 42.686397 43.034228 43.382477 43.731088 44.080038
44.429255 44.778700 45.128281 45.477943 45.827575 46.177103 46.526396 46.875363
47.223850 47.571748 47.918883 48.265125 48.610280 48.954201 49.296674 49.637533
49.976546 50.313530 50.648239 50.980473 51.309973 51.636528 51.959865 52.279766
52.595951 52.908193 53.216212 53.519777 53.818608 54.112476 54.401106 54.684276
54.961716 55.233216 55.498519 55.757426 56.009698 56.255150 56.493563 56.724771
56.948575 57.164828 57.373355 57.574029 57.766698 57.951256 58.127574 58.295564
58.455119 58.606172 58.748635 58.882457 59.007568 59.123930 59.231492 59.330226
59.420094 59.501079 59.573152 59.636304 59.690516 59.735781 59.772090 59.799438
59.817821 59.827238 59.827688 59.819172 59.801695 59.775259 59.739872 59.695539
59.642275 59.580087 59.508997 59.429018 59.340181 59.242504 59.136030 59.020787
58.896832 58.764202 58.622972 58.473193 58.314957 58.148333 57.973433 57.790343
57.599197 57.400102 57.193214 56.978661 56.756621 56.527243 56.290727 56.047242
55.797010 55.540217 55.277104 55.007872 54.732780 54.452041 54.165925 53.874655
53.578512 53.277722 52.972570 52.663286 52.350154 52.033401 51.713309 51.390097
51.064041 50.735350 50.404288 50.071053 49.735896 49.398998 49.060593 48.720848
48.379978 48.038131 47.695503 47.352223 47.008465 46.664341 46.320004 45.975544
45.631097 45.286732 44.942563 44.598644 44.255069 43.911872 43.569129 43.226861
42.885123 42.543922 42.203296 41.863240 41.523776 41.184887 40.846581 40.508831
40.171632 39.834949 39.498767 39.163042 38.827749 38.492839 38.158280 37.824020
37.490017 37.156219 36.822578 36.489040 36.155556
36.533333 36.905780 37.278279 37.650881 38.023639 38.396598 38.769811 39.143317
39.517167 39.891393 40.266040 40.641130 41.016705 41.392774 41.769371 42.146493
42.524164 42.902367 43.281115 43.660374 44.040144 44.420375 44.801051 45.182103
45.563500 45.945153 46.327011 46.708964 47.090944 47.472819 47.854498 48.235828
48.616698 48.996931 49.376394 49.754887 50.132258 50.508284 50.882791 51.255535
51.626324 51.994895 52.361037 52.724470 53.084968 53.442238 53.796040 54.146071
54.492083 54.833767 55.170869 55.503079 55.830142 56.151749 56.467653 56.777550
57.081201 57.378316 57.668667 57.951980 58.228044 58.496605 58.757471 59.010412
59.255255 59.491795 59.719884 59.939342 60.150043 60.351834 60.544611 60.728247
60.902658 61.067742 61.223434 61.369653 61.506352 61.633467 61.750967 61.858803
61.956956 62.045391 62.124095 62.193046 62.252237 62.301653 62.341292 62.371144
62.391210 62.401488 62.401976 62.392678 62.373594 62.344732 62.306093 62.257690
62.199528 62.131624 62.053988 61.966646 61.869613 61.762926 61.646608 61.520710
61.385267 61.240345 61.085992 60.922296 60.749320 60.567172 60.375936 60.175744
59.966701 59.748964 59.522660 59.287971 59.045050 58.794103 58.535305 58.268888
57.995047 57.714038 57.426075 57.131433 56.830342 56.523095 56.209932 55.891159
55.567026 55.237845 54.903868 54.565412 54.222729 53.876132 53.525869 53.172246
52.815504 52.455937 52.093772 51.729293 51.362709 50.994285 50.624216 50.252747
49.880050 49.506352 49.131804 48.756610 48.380899 48.004853 47.628579 47.252236
46.875911 46.499738 46.123784 45.748162 45.372919 44.998146 44.623873 44.250168
43.877047 43.504559 43.132703 42.761511 42.390969 42.021092 41.651854 41.283257
40.915264 40.547862 40.181008 39.814678 39.448819 39.083400 38.718363 38.353667
37.989252 37.625070 37.261060 36.897167 36.533333
36.911111 37.314650 37.718245 38.121958 38.525840 38.929951 39.334340 39.739063
40.144162 40.549689 40.955677 41.362173 41.769198 42.176793 42.584964 42.993743
43.403123 43.813125 44.223723 44.634925 45.046689 45.459007 45.871816 46.285093
46.698752 47.112752 47.526985 47.941388 48.355832 48.770230 49.184428 49.598319
50.011722 50.424507 50.836467 51.247449 51.657222 52.065608 52.472353 52.877256
53.280042 53.680487 54.078296 54.473228 54.864970 55.253265 55.637785 56.018263
56.394362 56.765804 57.132250 57.493418 57.848969 58.198625 58.542049 58.878972
59.209069 59.532081 59.847699 60.155680 60.455738 60.747648 61.031147 61.306034
61.572074 61.829090 62.076875 62.315279 62.544122 62.763282 62.972608 63.172001
63.361337 63.540540 63.709512 63.868197 64.016520 64.154439 64.281900 64.398877
64.505328 64.601239 64.686581 64.761349 64.825522 64.879098 64.922067 64.954429
64.976179 64.987317 64.987843 64.977759 64.957069 64.925774 64.883882 64.831397
64.768333 64.694694 64.610504 64.515771 64.410527 64.294791 64.168605 64.031999
63.885033 63.727747 63.560222 63.382516 63.194731 62.996946 62.789286 62.571854
62.344804 62.108260 61.862406 61.607392 61.343432 61.070701 60.789439 60.499850
60.202199 59.896711 59.583678 59.263343 58.936019 58.601965 58.261509 57.914923
57.562546 57.204655 56.841596 56.473649 56.101157 55.724398 55.343712 54.959367
54.571694 54.180949 53.787450 53.391435 52.993206 52.592983 52.191046 51.787595
51.382887 50.977099 50.570464 50.163137 49.755324 49.347157 48.938816 48.530410
48.122094 47.713953 47.306118 46.898651 46.491661 46.085188 45.679317 45.274071
44.869514 44.465649 44.062520 43.660118 43.258465 42.857539 42.457346 42.057852
41.659048 41.260888 40.863352 40.466386 40.069956 39.674004 39.278486 38.883338
38.488509 38.093933 37.699552 37.305299 36.911111
37.288889 37.723526 38.158227 38.593055 39.028076 39.463346 39.898930 40.334877
40.771251 41.208091 41.645455 42.083373 42.521894 42.961036 43.400840 43.841307
44.282468 44.724308 45.166843 45.610041 46.053901 46.498371 46.943435 47.389015
47.835077 48.281520 48.728288 49.175256 49.622343 50.069398 50.516318 50.962923
51.409083 51.854593 52.299297 52.742961 53.185404 53.626364 54.065635 54.502929
54.938016 55.370585 55.800382 56.227077 56.650397 57.069991 57.485574 57.896780
58.303313 58.704800 59.100936 59.491348 59.875730 60.253711 60.624989 60.989204
61.346064 61.695223 62.036406 62.369288 62.693613 63.009081 63.315460 63.612480
63.899935 64.177585 64.445255 64.702737 64.949884 65.186519 65.412526 65.627758
65.832124 66.025509 66.207843 66.379038 66.539045 66.687798 66.825265 66.951397
67.066178 67.169573 67.261575 67.342161 67.411329 67.469066 67.515373 67.550243
67.573679 67.585677 67.586241 67.575371 67.553069 67.519341 67.474188 67.417620
67.349639 67.270262 67.179494 67.077361 66.963874 66.839071 66.702971 66.555628
66.397074 66.227381 66.046599 65.854823 65.652121 65.438615 65.214398 64.979619
64.734398 64.478916 64.213320 63.937824 63.652603 63.357904 63.053931 62.740960
62.419223 62.089025 61.750623 61.404345 61.050468 60.689342 60.321259 59.946583
59.565618 59.178736 58.786245 58.388522 57.985872 57.578670 57.167216 56.751876
56.332936 55.910752 55.485594 55.057797 54.627616 54.195363 53.761269 53.325624
52.888635 52.450565 52.011596 51.571963 51.131823 50.691382 50.250771 49.810170
49.369681 48.929459 48.489582 48.050176 47.611297 47.173046 46.735457 46.298606
45.862507 45.427216 44.992728 44.559077 44.126242 43.694238 43.263032 42.832621
42.402960 41.974030 41.545776 41.118167 40.691140 40.264651 39.838633 39.413033
38.987778 38.562807 38.138048 37.713433 37.288889
37.666667 38.132408 38.598220 39.064174 39.530337 39.996780 40.463564 40.930758
41.398415 41.866599 42.335351 42.804732 43.274767 43.745510 44.216972 44.689195
45.162172 45.635933 46.110453 46.585745 47.061764 47.538504 48.015898 48.493920
48.972477 49.451523 49.930939 50.410652 50.890515 51.370433 51.850227 52.329774
52.808869 53.287357 53.765003 54.241626 54.716959 55.190793 55.662831 56.132838
56.600489 57.065522 57.527588 57.986402 58.441594 58.892857 59.339806 59.782119
60.219397 60.651308 61.077448 61.497481 61.911001 62.317676 62.717107 63.108969
63.492876 63.868519 64.235532 64.593625 64.942459 65.281768 65.611242 65.930645
66.239702 66.538206 66.825918 67.102665 67.368242 67.622508 67.865295 68.096492
68.315963 68.523626 68.719376 68.903154 69.074881 69.234519 69.382012 69.517338
69.640458 69.751362 69.850025 69.936445 70.010607 70.072513 70.122155 70.159537
70.184656 70.197515 70.198115 70.186457 70.162545 70.126378 70.077965 70.017303
69.944406 69.859273 69.761925 69.652366 69.530625 69.396716 69.250681 69.092545
68.922369 68.740193 68.546101 68.340154 68.122461 67.893107 67.652232 67.399949
67.136431 66.861821 66.576328 66.280127 65.973461 65.656539 65.329640 64.993002
64.646940 64.291719 63.927684 63.555125 63.174413 62.785858 62.389850 61.986714
61.576853 61.160600 60.738366 60.310485 59.877368 59.439345 58.996819 58.550112
58.099614 57.645631 57.188536 56.728616 56.266221 55.801615 55.335124 54.866984
54.397494 53.926864 53.455364 52.983172 52.510528 52.037585 51.564551 51.091548
50.618756 50.146271 49.674240 49.202735 48.731875 48.261707 47.792324 47.323750
46.856052 46.389234 45.923341 45.458357 44.994306 44.531158 44.068915 43.607534
43.147000 42.687258 42.228278 41.769996 41.312368 40.855321 40.398803 39.942736
39.487056 39.031684 38.576548 38.121568 37.666667
38.044444 38.541293 39.038221 39.535303 40.032618 40.530237 41.028239 41.526684
42.025649 42.525184 43.025361 43.526218 44.027816 44.530181 45.033363 45.537371
46.042243 46.547966 47.054566 47.562008 48.070298 48.579379 49.089237 49.599790
50.111000 50.622757 51.135000 51.647588 52.160433 52.673365 53.186265 53.698932
54.211216 54.722884 55.233756 55.743564 56.252097 56.759054 57.264195 57.767187
58.267759 58.765550 59.260262 59.751508 60.238965 60.722225 61.200946 61.674701
62.143136 62.605813 63.062368 63.512362 63.955427 64.391129 64.819106 65.238934
65.650264 66.052690 66.445885 66.829465 67.203129 67.566527 67.919385 68.261389
68.592301 68.911843 69.219814 69.515977 69.800165 70.072181 70.331895 70.579147
70.813838 71.035844 71.245096 71.441499 71.625008 71.795557 71.953120 72.097650