<?xml version="1.0"?>
<VTKFile type="ImageData" version="0.1" byte_order="LittleEndian">
  <ImageData WholeExtent="0 180 0 180 0 0" Origin="0.0 0.0 0.0" Spacing="0.05 0.05 1">
    <Piece Extent="0 180 0 180 0 0">
      <PointData Scalars="Temperature">
        <DataArray type="Float32" Name="Temperature" format="ascii">
32.000000 32.000000 32.000000 32.000000 32.000000 32.000000 32.000000 32.000000 32.000000 32.000000 32.000000 32.000000 32.000000 32.000000 32.000000 32.000000 32.000000 32.000000 32.000000 32.000000 32.000000 32.000000 32.000000 32.000000 32.000000 32.000000 32.000000 32.000000 32.000000 32.000000 32.000000 32.000000 32.000000 32.000000 32.000000 32.000000 32.000000 32.000000 32.000000 32.000000 32.000000 32.000000 32.000000 32.000000 32.000000 32.000000 32.000000 32.000000 32.000000 32.000000 32.000000 32.000000 32.000000 32.000000 32.000000 32.000000 32.000000 32.000000 32.000000 32.000000 32.000000 32.000000 32.000000 32.000000 32.000000 32.000000 32.000000 32.000000 32.000000 32.000000 32.000000 32.000000 32.000000 32.000000 32.000000 32.000000 32.000000 32.000000 32.000000 32.000000 32.000000 32.000000 32.000000 32.000000 32.000000 32.000000 32.000000 32.000000 32.000000 32.000000 32.000000 32.000000 32.000000 32.000000 32.000000 32.000000 32.000000 32.000000 32.000000 32.000000 32.000000 32.000000 32.000000 32.000000 32.000000 32.000000 32.000000 32.000000 32.000000 32.000000 32.000000 32.000000 32.000000 32.000000 32.000000 32.000000 32.000000 32.000000 32.000000 32.000000 32.000000 32.000000 32.000000 32.000000 32.000000 32.000000 32.000000 32.000000 32.000000 32.000000 32.000000 32.000000 32.000000 32.000000 32.000000 32.000000 32.000000 32.000000 32.000000 32.000000 32.000000 32.000000 32.000000 32.000000 32.000000 32.000000 32.000000 32.000000 32.000000 32.000000 32.000000 32.000000 32.000000 32.000000 32.000000 32.000000 32.000000 32.000000 32.000000 32.000000 32.000000 32.000000 32.000000 32.000000 32.000000 32.000000 32.000000 32.000000 32.000000 32.000000 32.000000 32.000000 32.000000 32.000000 32.000000 32.000000 32.000000 32.000000 32.000000 32.000000 32.000000
32.377778 32.407278 32.436784 32.466300 32.495833 32.525388 32.554968 32.584581 32.614229 32.643918 32.673651 32.703433 32.733264 32.763152 32.793094 32.823096 32.853157 32.883279 32.913460 32.943703 32.974002 33.004360 33.034769 33.065231 33.095737 33.126286 33.156867 33.187479 33.218108 33.248751 33.279394 33.310031 33.340645 33.371229 33.401766 33.432245 33.462647 33.492961 33.523165 33.553247 33.583183 33.612960 33.642553 33.671946 33.701114 33.730041 33.758699 33.787071 33.815130 33.842859 33.870229 33.897222 33.923812 33.949979 33.975697 34.000948 34.025706 34.049953 34.073665 34.096824 34.119407 34.141399 34.162778 34.183529 34.203632 34.223075 34.241839 34.259913 34.277280 34.293932 34.309853 34.325036 34.339468 34.353142 34.366048 34.378181 34.389531 34.400095 34.409865 34.418839 34.427010 34.434376 34.440934 34.446680 34.451613 34.455731 34.459032 34.461515 34.463179 34.464023 34.464049 34.463255 34.461642 34.459211 34.455963 34.451899 34.447021 34.441330 34.434831 34.427524 34.419414 34.410504 34.400800 34.390305 34.379026 34.366968 34.354140 34.340548 34.326201 34.311108 34.295280 34.278727 34.261462 34.243495 34.224844 34.205519 34.185539 34.164917 34.143673 34.121823 34.099387 34.076383 34.052833 34.028754 34.004172 33.979104 33.953577 33.927609 33.901226 33.874448 33.847303 33.819807 33.791990 33.763869 33.735472 33.706816 33.677928 33.648825 33.619533 33.590067 33.560452 33.530702 33.500841 33.470881 33.440844 33.410742 33.380594 33.350409 33.320206 33.289993 33.259786 33.229590 33.199420 33.169280 33.139183 33.109130 33.079133 33.049191 33.019315 32.989502 32.959760 32.930087 32.900488 32.870959 32.841504 32.812119 32.782805 32.753557 32.724376 32.695256 32.666196 32.637189 32.608234 32.579323 32.550454 32.521619 32.492815 32.464034 32.435272 32.406522 32.377778
32.755556 32.814559 32.873574 32.932610 32.991680 33.050792 33.109958 33.169185 33.228487 33.287868 33.347339 33.406906 33.466577 33.526355 33.586248 33.646256 33.706387 33.766635 33.827008 33.887498 33.948109 34.008830 34.069663 34.130594 34.191621 34.252726 34.313905 34.375137 34.436414 34.497711 34.559016 34.620301 34.681551 34.742732 34.803828 34.864800 34.925629 34.986272 35.046706 35.106886 35.166786 35.226357 35.285570 35.344375 35.402739 35.460611 35.517955 35.574719 35.630866 35.686342 35.741111 35.795117 35.848324 35.900678 35.952141 36.002661 36.052203 36.100714 36.148161 36.194495 36.239685 36.283683 36.326462 36.367977 36.408203 36.447100 36.484645 36.520803 36.555554 36.588865 36.620721 36.651093 36.679968 36.707321 36.733143 36.757412 36.780120 36.801251 36.820798 36.838747 36.855095 36.869829 36.882947 36.894442 36.904310 36.912546 36.919149 36.924115 36.927444 36.929134 36.929185 36.927597 36.924370 36.919508 36.913010 36.904881 36.895122 36.883740 36.870737 36.856121 36.839897 36.822075 36.802660 36.781667 36.759102 36.734982 36.709317 36.682127 36.653422 36.623229 36.591560 36.558445 36.523900 36.487957 36.450637 36.411975 36.371996 36.330739 36.288231 36.244515 36.199621 36.153596 36.106471 36.058297 36.009107 35.958953 35.907872 35.855917 35.803124 35.749549 35.695229 35.640219 35.584555 35.528294 35.471471 35.414141 35.356337 35.298113 35.239500 35.180551 35.121294 35.061778 35.002030 34.942095 34.881997 34.821779 34.761459 34.701078 34.640651 34.580213 34.519778 34.459377 34.399018 34.338730 34.278518 34.218405 34.158395 34.098506 34.038739 33.979108 33.919612 33.860261 33.801051 33.741990 33.683070 33.624296 33.565660 33.507162 33.448792 33.390550 33.332423 33.274407 33.216491 33.158668 33.100924 33.043253 32.985641 32.928077 32.870549 32.813046 32.755556
33.133333 33.221847 33.310377 33.398940 33.487552 33.576229 33.664986 33.753839 33.842799 33.931883 34.021099 34.110464 34.199980 34.289664 34.379515 34.469547 34.559755 34.650151 34.740725 34.831485 34.922418 35.013529 35.104798 35.196226 35.287788 35.379481 35.471276 35.563163 35.655107 35.747095 35.839085 35.931059 36.022969 36.114791 36.206473 36.297986 36.389270 36.480292 36.570987 36.661318 36.751214 36.840635 36.929503 37.017776 37.105373 37.192247 37.278316 37.363529 37.447803 37.531084 37.613290 37.694366 37.774228 37.852823 37.930068 38.005911 38.080271 38.153098 38.224314 38.293871 38.361697 38.427747 38.491952 38.554272 38.614645 38.673033 38.729380 38.783655 38.835806 38.885806 38.933610 38.979196 39.022526 39.063580 39.102326 39.138749 39.172822 39.204534 39.233863 39.260799 39.285325 39.307436 39.327118 39.344366 39.359171 39.371529 39.381436 39.388887 39.393882 39.396417 39.396494 39.394111 39.389270 39.381974 39.372225 39.360027 39.345386 39.328306 39.308797 39.286864 39.262522 39.235777 39.206647 39.175141 39.141283 39.105083 39.066572 39.025762 38.982689 38.937370 38.889846 38.840140 38.788297 38.734345 38.678335 38.620301 38.560298 38.498365 38.434566 38.368940 38.301557 38.232463 38.161731 38.089410 38.015577 37.940284 37.863611 37.785613 37.706373 37.625943 37.544411 37.461828 37.378280 37.293821 37.208535 37.122472 37.035715 36.948314 36.860346 36.771859 36.682927 36.593592 36.503926 36.413966 36.323778 36.233396 36.142879 36.052255 35.961581 35.870877 35.780193 35.689547 35.598982 35.508509 35.418167 35.327962 35.237925 35.148059 35.058389 34.968914 34.879654 34.790602 34.701773 34.613158 34.524767 34.436586 34.348621 34.260857 34.173294 34.085915 33.998717 33.911681 33.824799 33.738053 33.651432 33.564915 33.478490 33.392136 33.305838 33.219576 33.133333
33.511111 33.629144 33.747199 33.865297 33.983463 34.101714 34.220075 34.338561 34.457196 34.575992 34.694971 34.814142 34.933525 35.053125 35.172959 35.293025 35.413340 35.533895 35.654702 35.775748 35.897040 36.018557 36.140302 36.262248 36.384391 36.506696 36.629156 36.751725 36.874391 36.997101 37.119835 37.242532 37.365166 37.487668 37.610005 37.732099 37.853912 37.975359 38.096393 38.216923 38.336897 38.456217 38.574825 38.692619 38.809535 38.925467 39.040348 39.154067 39.266554 39.377699 39.487428 39.595630 39.702233 39.807125 39.910235 40.011454 40.110712 40.207904 40.302964 40.395791 40.486324 40.574467 40.660164 40.743327 40.823905 40.901818 40.977020 41.049439 41.119037 41.185749 41.249542 41.310362 41.368180 41.422950 41.474649 41.523238 41.568700 41.611001 41.650130 41.686059 41.718779 41.748271 41.774527 41.797531 41.817280 41.833763 41.846978 41.856916 41.863578 41.866959 41.867061 41.863883 41.857426 41.847694 41.834690 41.818421 41.798890 41.776109 41.750083 41.720829 41.688354 41.652679 41.613815 41.571788 41.526613 41.478323 41.426935 41.372492 41.315015 41.254552 41.191132 41.124812 41.055624 40.983635 40.908883 40.831441 40.751357 40.668710 40.583553 40.495975 40.406034 40.313824 40.219409 40.122890 40.024335 39.923849 39.821503 39.717407 39.611633 39.504293 39.395460 39.285248 39.173729 39.061015 38.947178 38.832327 38.716532 38.599899 38.482492 38.364416 38.245727 38.126526 38.006864 37.886834 37.766483 37.645895 37.525111 37.404209 37.283221 37.162217 37.041225 36.920305 36.799477 36.678795 36.558271 36.437951 36.317841 36.197979 36.078365 35.959030 35.839968 35.721201 35.602720 35.484540 35.366648 35.249051 35.131732 35.014693 34.897914 34.781392 34.665104 34.549040 34.433177 34.317502 34.201989 34.086621 33.971371 33.856221 33.741143 33.626115 33.511111
33.888889 34.036453 34.184045 34.331694 34.479424 34.627265 34.775241 34.923379 35.071699 35.220229 35.368982 35.517986 35.667249 35.816794 35.966624 36.116761 36.267197 36.417952 36.569011 36.720388 36.872060 37.024035 37.176282 37.328802 37.481555 37.634536 37.787693 37.941015 38.094440 38.247949 38.401469 38.554973 38.708379 38.861649 39.014694 39.167466 39.319865 39.471837 39.623272 39.774107 39.924225 40.073556 40.221974 40.369403 40.515711 40.660817 40.804584 40.946926 41.087703 41.226827 41.364157 41.499601 41.633019 41.764321 41.893368 42.020071 42.144297 42.265958 42.384927 42.501122 42.614420 42.724748 42.831990 42.936079 43.036910 43.134421 43.228519 43.319149 43.406228 43.489710 43.569521 43.645623 43.717953 43.786480 43.851150 43.911939 43.968802 44.021721 44.070659 44.115603 44.156524 44.193413 44.226247 44.255021 44.279717 44.300332 44.316856 44.329286 44.337615 44.341844 44.341971 44.337996 44.329922 44.317751 44.301489 44.281140 44.256716 44.228222 44.195675 44.159083 44.118468 44.073841 44.025233 43.972657 43.916152 43.855736 43.791456 43.723336 43.651433 43.575776 43.496432 43.413439 43.326873 43.236779 43.143244 43.046321 42.946107 42.842664 42.736097 42.626476 42.513916 42.398493 42.280330 42.159510 42.036164 41.910376 41.782284 41.651976 41.519594 41.385228 41.249019 41.111060 40.971493 40.830407 40.687944 40.544190 40.399283 40.253305 40.106389 39.958613 39.810102 39.660927 39.511208 39.361007 39.210434 39.059546 38.908443 38.757171 38.605823 38.454437 38.303093 38.151822 38.000695 37.849732 37.698994 37.548495 37.398285 37.248368 37.098787 36.949539 36.800655 36.652127 36.503978 36.356192 36.208784 36.061735 35.915050 35.768705 35.622701 35.477008 35.331621 35.186507 35.041654 34.897031 34.752617 34.608381 34.464299 34.320337 34.176470 34.032664 33.888889
34.266667 34.443777 34.620923 34.798134 34.975448 35.152893 35.330505 35.508308 35.686339 35.864616 36.043174 36.222025 36.401202 36.580709 36.760577 36.940801 37.121406 37.302381 37.483745 37.665477 37.847590 38.030051 38.212867 38.395996 38.579434 38.763128 38.947067 39.131185 39.315461 39.499818 39.684225 39.868591 40.052877 40.236979 40.420846 40.604365 40.787474 40.970046 41.152011 41.333233 41.513630 41.693057 41.871425 42.048579 42.224424 42.398797 42.571596 42.742657 42.911871 43.079071 43.244146 43.406927 43.567304 43.725109 43.880232 44.032510 44.181836 44.328051 44.471054 44.610695 44.746877 44.879460 45.008356 45.133434 45.254615 45.371781 45.484862 45.593751 45.698388 45.798679 45.894574 45.985991 46.072888 46.155197 46.232885 46.305893 46.374196 46.437746 46.496524 46.550493 46.599638 46.643931 46.683361 46.717907 46.747563 46.772313 46.792154 46.807077 46.817078 46.822155 46.822307 46.817534 46.807839 46.793226 46.773699 46.749268 46.719939 46.685727 46.646641 46.602704 46.553925 46.500337 46.441954 46.378816 46.310941 46.238381 46.161160 46.079340 45.992953 45.902071 45.806736 45.707031 45.603009 45.494764 45.382357 45.265898 45.145456 45.021152 44.893066 44.761331 44.626034 44.487320 44.345283 44.200078 44.051806 43.900628 43.746650 43.590039 43.430904 43.269416 43.105686 42.939885 42.772122 42.602570 42.431334 42.258583 42.084420 41.909008 41.732442 41.554880 41.376411 41.197183 41.017276 40.836828 40.655911 40.474654 40.293115 40.111412 39.929596 39.747771 39.565976 39.384305 39.202785 39.021499 38.840463 38.659747 38.479360 38.299358 38.119740 37.940552 37.761786 37.583474 37.405602 37.228191 37.051220 36.874703 36.698610 36.522947 36.347680 36.172806 35.998288 35.824113 35.650245 35.476662 35.303326 35.130212 34.957278 34.784495 34.611822 34.439226 34.266667
34.644444 34.851120 35.057835 35.264631 35.471543 35.678616 35.885879 36.093376 36.301132 36.509190 36.717568 36.926305 37.135413 37.344928 37.554851 37.765215 37.976012 38.187268 38.398963 38.611118 38.823702 39.036726 39.250148 39.463970 39.678136 39.892639 40.107408 40.322427 40.537611 40.752931 40.968288 41.183641 41.398878 41.613945 41.828715 42.043123 42.257028 42.470353 42.682943 42.894710 43.105488 43.315177 43.523601 43.730651 43.936142 44.139957 44.341904 44.541859 44.739626 44.935077 45.128014 45.318307 45.505756 45.690234 45.871545 46.049561 46.224092 46.395017 46.562154 46.725387 46.884544 47.039517 47.190149 47.336340 47.477944 47.614875 47.747001 47.874246 47.996494 48.113679 48.225701 48.332505 48.434005 48.530157 48.620888 48.706165 48.785927 48.860149 48.928781 48.991806 49.049185 49.100905 49.146937 49.187274 49.221893 49.250789 49.273950 49.291371 49.303045 49.308971 49.309148 49.303576 49.292258 49.275197 49.252402 49.223878 49.189639 49.149692 49.104061 49.052754 48.995803 48.933221 48.865050 48.791307 48.712045 48.627289 48.537102 48.441519 48.340615 48.234433 48.123065 48.006563 47.885032 47.758537 47.627198 47.491090 47.350348 47.205060 47.055374 46.901388 46.743264 46.581111 46.415103 46.245356 46.072054 45.895319 45.715346 45.532260 45.346260 45.157476 44.966108 44.772287 44.576215 44.378018 44.177896 43.975974 43.772444 43.567425 43.361104 43.153590 42.945063 42.735621 42.525432 42.314586 42.103239 41.891468 41.679416 41.467147 41.254792 41.042402 40.830094 40.617906 40.405940 40.194224 39.982843 39.771815 39.561210 39.351035 39.141346 38.932141 38.723463 38.515298 38.307678 38.100581 37.894028 37.687988 37.482472 37.277443 37.072900 36.868803 36.665142 36.461873 36.258977 36.056407 35.854137 35.652120 35.450323 35.248698 35.047207 34.845803 34.644444
35.022222 35.258482 35.494789 35.731187 35.967724 36.204440 36.441385 36.678592 36.916110 37.153964 37.392204 37.630845 37.869933 38.109475 38.349512 38.590039 38.831092 39.072656 39.314757 39.557367 39.800507 40.044132 40.288254 40.532815 40.777813 41.023178 41.268894 41.514875 41.761094 42.007446 42.253892 42.500312 42.746650 42.992771 43.238605 43.484000 43.728873 43.973056 44.216453 44.458879 44.700227 44.940301 45.178978 45.416053 45.651393 45.884783 46.116082 46.345068 46.571594 46.795434 47.016438 47.234378 47.449102 47.660386 47.868079 48.071961 48.271886 48.467641 48.659088 48.846025 49.028321 49.205787 49.378305 49.545699 49.707864 49.864639 50.015931 50.161600 50.301564 50.435699 50.563939 50.686175 50.802353 50.912383 51.016222 51.113794 51.205066 51.289978 51.368505 51.440599 51.506243 51.565399 51.618057 51.664188 51.703786 51.736832 51.763322 51.783243 51.796595 51.803371 51.803572 51.797200 51.784255 51.764744 51.738671 51.706049 51.666884 51.621198 51.568997 51.510313 51.445156 51.373569 51.295567 51.211202 51.120499 51.023522 50.920305 50.810925 50.695425 50.573901 50.446407 50.313053 50.173907 50.029096 49.878700 49.722866 49.561687 49.395324 49.223885 49.047548 48.866432 48.680729 48.490571 48.296162 48.097640 47.895224 47.689058 47.479365 47.266297 47.050081 46.830870 46.608894 46.384303 46.157327 45.928113 45.696887 45.463787 45.229035 44.992760 44.755174 44.516396 44.276627 44.035975 43.794625 43.552674 43.310294 43.067565 42.824643 42.581598 42.338567 42.095604 41.852832 41.610290 41.368085 41.126241 40.884849 40.643920 40.403528 40.163674 39.924414 39.685739 39.447691 39.210248 38.973440 38.737238 38.501656 38.266657 38.032245 37.798376 37.565043 37.332196 37.099819 36.867859 36.636289 36.405055 36.174123 35.943437 35.712956 35.482625 35.252398 35.022222
35.400000 35.665867 35.931786 36.197812 36.463993 36.730384 36.997028 37.263982 37.531278 37.798974 38.067094 38.335690 38.604779 38.874408 39.144582 39.415341 39.686679 39.958629 40.231169 40.504325 40.778059 41.052387 41.327256 41.602669 41.878556 42.154907 42.431635 42.708716 42.986044 43.263581 43.541202 43.818852 44.096388 44.373740 44.650745 44.927317 45.203276 45.478519 45.752849 46.026148 46.298203 46.568882 46.837958 47.105285 47.370626 47.633824 47.894631 48.152885 48.408328 48.660794 48.910023 49.155844 49.397999 49.636317 49.870543 50.100511 50.325973 50.546768 50.762660 50.973496 51.179055 51.379195 51.573710 51.762472 51.945293 52.122060 52.292602 52.456824 52.614574 52.765772 52.910285 53.048048 53.178950 53.302937 53.419917 53.529848 53.632656 53.728309 53.816747 53.897950 53.971869 54.038492 54.097781 54.149729 54.194310 54.231520 54.261340 54.283770 54.298800 54.306429 54.306655 54.299479 54.284905 54.262936 54.233583 54.196849 54.152755 54.101305 54.042529 53.976436 53.903065 53.822430 53.734581 53.639542 53.537374 53.428111 53.311829 53.188572 53.058434 52.921470 52.777794 52.627474 52.470644 52.307385 52.137852 51.962142 51.780429 51.592826 51.399525 51.200654 50.996423 50.786973 50.572531 50.353249 50.129367 49.901047 49.668538 49.432009 49.191718 48.947836 48.700624 48.450254 48.196989 47.940996 47.682535 47.421769 47.158950 46.894234 46.627862 46.359980 46.090818 45.820507 45.549266 45.277209 45.004539 44.731356 44.457846 44.184092 43.910262 43.636423 43.362723 43.089213 42.816023 42.543188 42.270819 41.998936 41.727629 41.456907 41.186841 40.917425 40.648715 40.380692 40.113396 39.846797 39.580920 39.315726 39.051224 38.787368 38.524156 38.261534 37.999486 37.737957 37.476919 37.216311 36.956100 36.696221 36.436632 36.177269 35.918083 35.659012 35.400000
35.777778 36.073275 36.368833 36.664508 36.960363 37.256449 37.552830 37.849548 38.146668 38.444224 38.742276 39.040849 39.340000 39.639740 39.940121 40.241141 40.542845 40.845215 41.148288 41.452029 41.756465 42.061544 42.367278 42.673601 42.980508 43.287914 43.595801 43.904061 44.212661 44.521472 44.830444 45.139427 45.448353 45.757051 46.065433 46.373310 46.680575 46.987017 47.292514 47.596835 47.899842 48.201286 48.501014 48.798763 49.094365 49.387547 49.678129 49.965827 50.250457 50.531728 50.809449 51.083330 51.353177 51.618704 51.879718 52.135939 52.387182 52.633174 52.873741 53.108624 53.337658 53.560605 53.777312 53.987560 54.191213 54.388073 54.578022 54.760882 54.936554 55.104883 55.265787 55.419133 55.564855 55.702841 55.833041 55.955363 56.069770 56.176186 56.274586 56.364911 56.447144 56.521241 56.587190 56.644959 56.694543 56.735918 56.769081 56.794020 56.810734 56.819215 56.819465 56.811486 56.795277 56.770849 56.738203 56.697355 56.648310 56.591094 56.525713 56.452204 56.370577 56.280881 56.183135 56.077400 55.963703 55.842122 55.712696 55.575519 55.430644 55.278186 55.118211 54.950856 54.776204 54.594414 54.405585 54.209900 54.007475 53.798515 53.583155 53.361619 53.134058 52.900716 52.661759 52.417448 52.167960 51.913569 51.654462 51.390924 51.123146 50.851420 50.575939 50.296997 50.014786 49.729600 49.441624 49.151146 48.858344 48.563497 48.266773 47.968437 47.668643 47.367643 47.065576 46.762676 46.459064 46.154955 45.850454 45.545756 45.240947 44.936200 44.631582 44.327248 44.023245 43.719706 43.416661 43.114222 42.812403 42.511295 42.210896 41.911278 41.612426 41.314391 41.017147 40.720726 40.425091 40.130259 39.836182 39.542863 39.250244 38.958316 38.667015 38.376318 38.086157 37.796498 37.507271 37.218431 36.929908 36.641648 36.353581 36.065647 35.777778
36.155556 36.480710 36.805930 37.131285 37.456835 37.782652 38.108789 38.435317 38.762279 39.089747 39.417753 39.746364 40.075600 40.405523 40.736140 41.067504 41.399607 41.732493 42.066138 42.400574 42.735759 43.071712 43.408371 43.745741 44.083738 44.422353 44.761479 45.101089 45.441054 45.781327 46.121757 46.462278 46.802713 47.142978 47.482872 47.822290 48.161010 48.498904 48.835729 49.171340 49.505471 49.837960 50.168524 50.496983 50.823039 51.146500 51.467054 51.784499 52.098515 52.408891 52.715306 53.017544 53.315283 53.608308 53.896303 54.179057 54.456263 54.727718 54.993130 55.252307 55.504974 55.750955 55.989995 56.221935 56.446543 56.663681 56.873139 57.074799 57.268479 57.454079 57.631441 57.800486 57.961081 58.113164 58.256623 58.391414 58.517446 58.634687 58.743066 58.842561 58.933118 59.014724 59.087339 59.150954 59.205542 59.251098 59.287606 59.315063 59.333460 59.342797 59.343071 59.334284 59.316441 59.289543 59.253603 59.208624 59.154627 59.091618 59.019627 58.938665 58.848773 58.749968 58.642307 58.525813 58.400560 58.266582 58.123973 57.972779 57.813115 57.645044 57.468703 57.284172 57.091614 56.891129 56.682902 56.467054 56.243798 56.013272 55.775714 55.531282 55.280236 55.022753 54.759112 54.489505 54.214229 53.933487 53.647590 53.356751 53.061289 52.761420 52.457469 52.149654 51.838299 51.523616 51.205929 50.885441 50.562466 50.237198 49.909939 49.580868 49.250271 48.918313 48.585262 48.251262 47.916563 47.581288 47.245665 46.909798 46.573892 46.238030 45.902392 45.567042 45.232136 44.897718 44.563921 44.230769 43.898372 43.566737 43.235952 42.906006 42.576967 42.248809 41.921579 41.595239 41.269816 40.945262 40.621585 40.298728 39.976684 39.655387 39.334816 39.014898 38.695600 38.376845 38.058588 37.740751 37.423278 37.106090 36.789124 36.472302 36.155556
36.533333 36.888170 37.243082 37.598139 37.953420 38.308989 38.664924 39.021281 39.378138 39.735539 40.093559 40.452230 40.811624 41.171756 41.532692 41.894432 42.257031 42.620473 42.984801 43.349979 43.716039 44.082924 44.450649 44.819135 45.188382 45.558286 45.928829 46.299883 46.671409 47.043254 47.415357 47.787540 48.159719 48.531691 48.903350 49.274465 49.644909 50.014426 50.382867 50.749952 51.115510 51.479241 51.840956 52.200334 52.557168 52.911125 53.261983 53.609396 53.953132 54.292839 54.628280 54.959098 55.285054 55.605796 55.921088 56.230584 56.534056 56.831172 57.121713 57.405367 57.681930 57.951110 58.212723 58.466500 58.712279 58.949818 59.178976 59.399540 59.611392 59.814346 60.008306 60.193116 60.368699 60.534926 60.691738 60.839031 60.976764 61.104851 61.223267 61.331945 61.430869 61.519991 61.599302 61.668765 61.728379 61.778118 61.817982 61.847957 61.868043 61.878234 61.878533 61.868939 61.849453 61.820087 61.780839 61.731728 61.672757 61.603952 61.525320 61.436898 61.338697 61.230770 61.113135 60.985860 60.848975 60.702568 60.546680 60.381421 60.206851 60.023102 59.830254 59.628465 59.417835 59.198552 58.970735 58.734602 58.490296 58.238061 57.978062 57.710572 57.435776 57.153970 56.865358 56.570259 56.268890 55.961589 55.648586 55.330228 55.006754 54.678520 54.345767 54.008854 53.668019 53.323620 52.975889 52.625175 52.271701 51.915805 51.557694 51.197692 50.835989 50.472890 50.108565 49.743298 49.377237 49.010643 48.643642 48.276470 47.909230 47.542131 47.175255 46.808783 46.442775 46.077387 45.712657 45.348715 44.985577 44.623351 44.262033 43.901706 43.542351 43.184026 42.826697 42.470403 42.115094 41.760789 41.407428 41.055011 40.703469 40.352784 40.002881 39.653726 39.305239 38.957373 38.610043 38.263193 37.916735 37.570603 37.224710 36.878981 36.533333
36.911111 37.295658 37.680286 38.065079 38.450113 38.835474 39.221228 39.607463 39.994234 40.381627 40.769683 41.158486 41.548062 41.938486 42.329771 42.721983 43.115115 43.509223 43.904279 44.300327 44.697318 45.095278 45.494137 45.893902 46.294478 46.695855 47.097910 47.500611 47.903808 48.307447 48.711350 49.115439 49.519507 49.923451 50.327036 50.730134 51.132482 51.533927 51.934179 52.333060 52.730257 53.125569 53.518658 53.909306 54.297154 54.681967 55.063372 55.441119 55.814824 56.184228 56.548943 56.908704 57.263123 57.611937 57.954762 58.291342 58.621305 58.944404 59.260286 59.568718 59.869368 60.162024 60.446380 60.722245 60.989342 61.247504 61.496486 61.736146 61.966271 62.186743 62.397381 62.598091 62.788723 62.969205 63.139413 63.299297 63.448757 63.587760 63.716228 63.834141 63.941441 64.038117 64.124126 64.199464 64.264102 64.318040 64.361259 64.393761 64.415536 64.426585 64.426907 64.416502 64.395376 64.363529 64.320976 64.267715 64.203770 64.129142 64.043865 63.947945 63.841427 63.724324 63.596699 63.458574 63.310030 63.151102 62.981894 62.802457 62.612922 62.413358 62.203923 61.984711 61.755908 61.517632 61.270103 61.013461 60.747959 60.473763 60.191155 59.900328 59.601591 59.295159 58.981367 58.660451 58.332766 57.998563 57.658216 57.311984 56.960254 56.603292 56.241488 55.875110 55.504549 55.130066 54.752048 54.370747 53.986539 53.599662 53.210478 52.819204 52.426186 52.031620 51.635828 51.238985 50.841388 50.443186 50.044649 49.645903 49.247188 48.848605 48.450366 48.052546 47.655329 47.258766 46.863011 46.468093 46.074139 45.681155 45.289242 44.898386 44.508663 44.120042 43.732574 43.346211 42.960983 42.576829 42.193758 41.811697 41.430635 41.050492 40.671239 40.292788 39.915096 39.538070 39.161653 38.785750 38.410291 38.035182 37.660344 37.285682 36.911111
37.288889 37.703172 38.117547 38.532099 38.946923 39.362097 39.777716 40.193849 40.610591 41.027995 41.446156 41.865112 42.284951 42.705695 43.127424 43.550142 43.973917 44.398733 44.824645 45.251615 45.679681 46.108781 46.538938 46.970060 47.402151 47.835093 48.268866 48.703323 49.138420 49.573982 50.009937 50.446079 50.882310 51.318393 51.754202 52.189469 52.624041 53.057618 53.490022 53.920923 54.350117 54.777249 55.202089 55.624259 56.043510 56.459444 56.871792 57.280144 57.684218 58.083594 58.477982 58.866959 59.250234 59.627385 59.998126 60.362044 60.718862 61.068185 61.409749 61.743180 62.068233 62.384564 62.691949 62.990075 63.278745 63.557679 63.826708 64.085586 64.334174 64.572262 64.799736 65.016422 65.222232 65.417022 65.600730 65.773240 65.934509 66.084448 66.223031 66.350189 66.465909 66.570141 66.662880 66.744092 66.813776 66.871910 66.918497 66.953523 66.976991 66.988897 66.989241 66.978027 66.955253 66.920930 66.875056 66.817648 66.748707 66.668258 66.576303 66.472881 66.358000 66.231712 66.094034 65.945038 65.784751 65.613268 65.430634 65.236968 65.032334 64.816882 64.590699 64.353967 64.106799 63.849411 63.581943 63.304646 63.017690 62.721361 62.415855 62.101493 61.778498 61.447220 61.107906 60.760933 60.406567 60.045207 59.677134 59.302763 58.922383 58.536420 58.145165 57.749048 57.348358 56.943522 56.534820 56.122669 55.707338 55.289228 54.868592 54.445810 54.021114 53.594862 53.167259 52.738639 52.309181 51.879189 51.448814 51.018331 50.587863 50.157653 49.727796 49.298505 48.869846 48.442001 48.015012 47.589029 47.164069 46.740254 46.317578 45.896133 45.475895 45.056929 44.639191 44.222722 43.807463 43.393431 42.980553 42.568824 42.158162 41.748541 41.339870 40.932108 40.525154 40.118954 39.713403 39.308432 38.903936 38.499833 38.096020 37.692406 37.288889
37.666667 38.110715 38.554860 38.999206 39.443840 39.888869 40.334373 40.780456 41.227187 41.674668 42.122953 42.572140 43.022266 43.473422 43.925625 44.378956 44.833413 45.289062 45.745878 46.203912 46.663115 47.123520 47.585048 48.047713 48.511408 48.976124 49.441722 49.908169 50.375294 50.843035 51.311189 51.779666 52.248229 52.716759 53.184982 53.652751 54.119758 54.585825 55.050612 55.513912 55.975355 56.434705 56.891565 57.345672 57.796609 58.244089 58.687675 59.127066 59.561809 59.991592 60.415955 60.834579 61.247006 61.652917 62.051860 62.443523 62.827469 63.203399 63.570898 63.929685 64.279371 64.619702 64.950321 65.271000 65.581418 65.881380 66.170601 66.448919 66.716088 66.971976 67.216378 67.449190 67.670244 67.879465 68.076717 68.261948 68.435053 68.596000 68.744710 68.881165 69.005308 69.117134 69.216601 69.303711 69.378436 69.440781 69.490731 69.528289 69.553449 69.566213 69.566580 69.554552 69.530134 69.493324 69.444135 69.382563 69.308630 69.222333 69.123703 69.012742 68.889493 68.753966 68.606222 68.446281 68.274226 68.090091 67.893987 67.685967 67.466171 67.234676 66.991657 66.737217 66.471568 66.194843 65.907292 65.609081 65.300498 64.981741 64.653136 64.314911 63.967429 63.610946 63.245857 62.872442 62.491124 62.102200 61.706115 61.303182 60.893856 60.478459 60.057453 59.631160 59.200044 58.764418 58.324739 57.881310 57.434574 56.984816 56.532461 56.077770 55.621147 55.162827 54.703184 54.242427 53.780900 53.318781 52.856382 52.393851 51.931465 51.469341 51.007723 50.546698 50.086475 49.627112 49.168785 48.711525 48.255474 47.800638 47.347128 46.894928 46.444118 45.994661 45.546609 45.099907 44.654583 44.210563 43.767851 43.326363 42.886079 42.446903 42.008798 41.571659 41.135432 40.700004 40.265307 39.831225 39.397678 38.964548 38.531744 38.099151 37.666667