# vtk DataFile Version 3.0
Steady-state temperature (Jacobi)
ASCII
DATASET STRUCTURED_POINTS
DIMENSIONS 181 181 1
ORIGIN 0.0 0.0 0.0
SPACING 0.05 0.05 1.0
POINT_DATA 32761
SCALARS Temperature float 1
LOOKUP_TABLE default
32.000000 32.000000 32.000000 32.000000 32.000000 32.000000 32.000000 32.000000
32.000000 32.000000 32.000000 32.000000 32.000000 32.000000 32.000000 32.000000
32.000000 32.000000 32.000000 32.000000 32.000000 32.000000 32.000000 32.000000
32.000000 32.000000 32.000000 32.000000 32.000000 32.000000 32.000000 32.000000
32.000000 32.000000 32.000000 32.000000 32.000000 32.000000 32.000000 32.000000
32.000000 32.000000 32.000000 32.000000 32.000000 32.000000 32.000000 32.000000
32.000000 32.000000 32.000000 32.000000 32.000000 32.000000 32.000000 32.000000
32.000000 32.000000 32.000000 32.000000 32.000000 32.000000 32.000000 32.000000
32.000000 32.000000 32.000000 32.000000 32.000000 32.000000 32.000000 32.000000
32.000000 32.000000 32.000000 32.000000 32.000000 32.000000 32.000000 32.000000
32.000000 32.000000 32.000000 32.000000 32.000000 32.000000 32.000000 32.000000
32.000000 32.000000 32.000000 32.000000 32.000000 32.000000 32.000000 32.000000
32.000000 32.000000 32.000000 32.000000 32.000000 32.000000 32.000000 32.000000
32.000000 32.000000 32.000000 32.000000 32.000000 32.000000 32.000000 32.000000
32.000000 32.000000 32.000000 32.000000 32.000000 32.000000 32.000000 32.000000
32.000000 32.000000 32.000000 32.000000 32.000000 32.000000 32.000000 32.000000
32.000000 32.000000 32.000000 32.000000 32.000000 32.000000 32.000000 32.000000
32.000000 32.000000 32.000000 32.000000 32.000000 32.000000 32.000000 32.000000
32.000000 32.000000 32.000000 32.000000 32.000000 32.000000 32.000000 32.000000
32.000000 32.000000 32.000000 32.000000 32.000000 32.000000 32.000000 32.000000
32.000000 32.000000 32.000000 32.000000 32.000000 32.000000 32.000000 32.000000
32.000000 32.000000 32.000000 32.000000 32.000000 32.000000 32.000000 32.000000
32.000000 32.000000 32.000000 32.000000 32.000000
32.377778 32.397772 32.417782 32.437827 32.457919 32.478079 32.498319 32.518658
32.539107 32.559687 32.580403 32.601280 32.622319 32.643544 32.664954 32.686573
32.708397 32.730448 32.752719 32.775234 32.797980 32.820979 32.844217 32.867714
32.891450 32.915447 32.939679 32.964167 32.988881 33.013840 33.039011 33.064409
33.090000 33.115796 33.141758 33.167897 33.194170 33.220587 33.247101 33.273720
33.300394 33.327128 33.353870 33.380625 33.407338 33.434010 33.460587 33.487068
33.513396 33.539571 33.565535 33.591286 33.616767 33.641975 33.666855 33.691401
33.715560 33.739327 33.762651 33.785526 33.807902 33.829776 33.851101 33.871872
33.892046 33.911620 33.930553 33.948843 33.966452 33.983380 33.999593 34.015090
34.029842 34.043848 34.057083 34.069547 34.081217 34.092096 34.102162 34.111419
34.119850 34.127457 34.134226 34.140161 34.145249 34.149494 34.152888 34.155431
34.157121 34.157957 34.157939 34.157065 34.155339 34.152758 34.149327 34.145046
34.139921 34.133951 34.127145 34.119503 34.111038 34.101746 34.091646 34.080734
34.069032 34.056536 34.043272 34.029236 34.014456 33.998932 33.982695 33.965743
33.948112 33.929802 33.910852 33.891263 33.871077 33.850296 33.828966 33.807088
33.784713 33.761842 33.738527 33.714773 33.690632 33.666109 33.641258 33.616084
33.590643 33.564939 33.539029 33.512915 33.486656 33.460252 33.433761 33.407183
33.380574 33.353933 33.327315 33.300716 33.274188 33.247727 33.221383 33.195149
33.169071 33.143141 33.117403 33.091845 33.066507 33.041376 33.016489 32.991831
32.967434 32.943280 32.919399 32.895772 32.872424 32.849333 32.826521 32.803966
32.781685 32.759654 32.737887 32.716360 32.695081 32.674028 32.653204 32.632585
32.612174 32.591946 32.571899 32.552008 32.532270 32.512660 32.493172 32.473781
32.454479 32.435242 32.416059 32.396910 32.377778
32.755556 32.795556 32.835591 32.875691 32.915892 32.956221 32.996719 33.037405
33.078324 33.119489 33.160947 33.202704 33.244809 33.287262 33.330112 33.373352
33.417031 33.461136 33.505714 33.550744 33.596273 33.642274 33.688789 33.735784
33.783300 33.831294 33.879806 33.928782 33.978260 34.028179 34.078572 34.129372
34.180607 34.232202 34.284182 34.336465 34.389069 34.441908 34.494996 34.548239
34.601647 34.655122 34.708670 34.762186 34.815675 34.869027 34.922244 34.975213
35.027933 35.080290 35.132281 35.183791 35.234814 35.285238 35.335056 35.384156
35.432530 35.480072 35.526772 35.572528 35.617332 35.661085 35.703781 35.745328
35.785719 35.824870 35.862775 35.899356 35.934611 35.968468 36.000926 36.031920
36.061451 36.089463 36.115957 36.140883 36.164245 36.185999 36.206150 36.224661
36.241538 36.256749 36.270299 36.282165 36.292350 36.300838 36.307631 36.312718
36.316100 36.317772 36.317735 36.315989 36.312532 36.307372 36.300505 36.291944
36.281686 36.269748 36.256126 36.240844 36.223898 36.205318 36.185100 36.163280
36.139853 36.114865 36.088310 36.060240 36.030652 35.999605 35.967097 35.933194
35.897896 35.861276 35.823335 35.784156 35.743739 35.702174 35.659465 35.615706
35.570903 35.525156 35.478473 35.430958 35.382619 35.333566 35.283805 35.233450
35.182507 35.131091 35.079208 35.026973 34.974391 34.921576 34.868531 34.815368
34.762087 34.708798 34.655498 34.602294 34.549177 34.496250 34.443502 34.391029
34.338815 34.286952 34.235419 34.184299 34.133569 34.083306 34.033480 33.984162
33.935318 33.887011 33.839203 33.791948 33.745207 33.699026 33.653361 33.608251
33.563649 33.519588 33.476018 33.432963 33.390374 33.348265 33.306587 33.265349
33.224499 33.184039 33.143920 33.104135 33.064637 33.025412 32.986415 32.947627
32.909005 32.870523 32.832142 32.793832 32.755556
33.133333 33.193367 33.253450 33.313635 33.373965 33.434498 33.495270 33.556344
33.617745 33.679541 33.741749 33.804438 33.867616 33.931354 33.995648 34.060571
34.126110 34.192335 34.259222 34.326841 34.395156 34.464235 34.534030 34.604607
34.675905 34.747986 34.820779 34.894339 34.968583 35.043563 35.119183 35.195490
35.272375 35.349880 35.427885 35.506424 35.585370 35.664748 35.744421 35.824409
35.904565 35.984903 36.065270 36.145674 36.225953 36.306112 36.385984 36.465568
36.544695 36.623361 36.701394 36.778786 36.855367 36.931127 37.005898 37.079667
37.152271 37.223697 37.293787 37.362529 37.429770 37.495501 37.559577 37.621990
37.682605 37.741416 37.798298 37.853247 37.906149 37.957002 38.005704 38.052256
38.096565 38.138635 38.178384 38.215819 38.250867 38.283537 38.313767 38.341565
38.366881 38.389722 38.410049 38.427866 38.443145 38.455890 38.466079 38.473717
38.478791 38.481302 38.481246 38.478624 38.473439 38.465691 38.455391 38.442537
38.427149 38.409223 38.388790 38.365843 38.340422 38.312521 38.282190 38.249422
38.214277 38.176748 38.136908 38.094751 38.050358 38.003726 37.954950 37.904026
37.851060 37.796052 37.739119 37.680263 37.619611 37.557170 37.493075 37.427335
37.360096 37.291367 37.221304 37.149917 37.077367 37.003666 36.928981 36.853324
36.776864 36.699613 36.621742 36.543260 36.464340 36.384987 36.305372 36.225497
36.145529 36.065467 35.985473 35.905539 35.825822 35.746307 35.667145 35.588315
35.509957 35.432045 35.354710 35.277919 35.201793 35.126291 35.051523 34.977444
34.904152 34.831594 34.759858 34.688885 34.618751 34.549394 34.480876 34.413131
34.346211 34.280044 34.214671 34.150020 34.086118 34.022891 33.960357 33.898441
33.837148 33.776405 33.716207 33.656480 33.597212 33.538331 33.479813 33.421591
33.363633 33.305875 33.248276 33.190778 33.133333
33.511111 33.591215 33.671389 33.751691 33.832199 33.912962 33.994065 34.075547
34.157495 34.239938 34.322969 34.406602 34.490933 34.575964 34.661792 34.748404
34.835898 34.924248 35.013549 35.103760 35.194974 35.287135 35.380332 35.474493
35.569703 35.665875 35.763086 35.861235 35.960392 36.060438 36.161439 36.263260
36.365957 36.469381 36.573579 36.678389 36.783849 36.889781 36.996218 37.102969
37.210056 37.317278 37.424651 37.531963 37.639222 37.746210 37.852927 37.959151
38.064874 38.169872 38.274134 38.377432 38.479754 38.580874 38.680774 38.779235
38.876239 38.971570 39.065211 39.156956 39.246788 39.334510 39.420109 39.503399
39.584369 39.662847 39.738826 39.812146 39.882804 39.950654 40.015698 40.077804
40.136976 40.193099 40.246179 40.296114 40.342914 40.386490 40.426853 40.463929
40.497729 40.528193 40.555329 40.579092 40.599489 40.616485 40.630088 40.640274
40.647047 40.650395 40.650321 40.646825 40.639904 40.629571 40.615822 40.598679
40.578137 40.554231 40.526952 40.496347 40.462408 40.425195 40.384698 40.340990
40.294062 40.244002 40.190801 40.134562 40.075278 40.013066 39.947922 39.879979
39.809235 39.735838 39.659790 39.581253 39.500233 39.416906 39.331281 39.243548
39.153718 39.061992 38.968385 38.873108 38.776176 38.677807 38.578020 38.477038
38.374878 38.271768 38.167722 38.062969 37.957521 37.851606 37.745232 37.638623
37.531779 37.424923 37.318047 37.211365 37.104862 36.998744 36.892987 36.787786
36.683109 36.579138 36.475833 36.373362 36.271676 36.170929 36.071065 35.972221
35.874332 35.777522 35.681718 35.587027 35.493369 35.400836 35.309342 35.218962
35.129607 35.041335 34.954053 34.867804 34.782491 34.698143 34.614663 34.532063
34.450245 34.369210 34.288859 34.209180 34.130076 34.051522 33.973425 33.895748
33.818402 33.741340 33.664480 33.587762 33.511111
33.888889 33.989116 34.089425 34.189906 34.290629 34.391695 34.493159 34.595129
34.697648 34.800830 34.904701 35.009380 35.114878 35.221314 35.328685 35.437110
35.546567 35.657176 35.768895 35.881843 35.995960 36.111358 36.227960 36.345873
36.464999 36.585439 36.707075 36.830001 36.954077 37.079390 37.205781 37.333326
37.461847 37.591409 37.721816 37.853123 37.985116 38.117839 38.251061 38.384817
38.518860 38.653213 38.787620 38.922091 39.056361 39.190430 39.324025 39.457139
39.589492 39.721073 39.851597 39.981048 40.109143 40.235861 40.360923 40.484307
40.605739 40.725196 40.842414 40.957371 41.069815 41.179726 41.286864 41.391214
41.492551 41.590865 41.685947 41.777791 41.866206 41.951191 42.032574 42.110357
42.184387 42.254670 42.321071 42.383599 42.442138 42.496700 42.547184 42.593603
42.635876 42.674013 42.707950 42.737697 42.763204 42.784480 42.801490 42.814240
42.822709 42.826901 42.826809 42.822432 42.813779 42.800845 42.783652 42.762194
42.736507 42.706580 42.672466 42.634153 42.591707 42.545117 42.494466 42.439740
42.381041 42.318357 42.251805 42.181377 42.107208 42.029293 41.947786 41.862684
41.774162 41.682221 41.587053 41.488665 41.387267 41.282871 41.175702 41.065776
40.953337 40.838402 40.721228 40.601837 40.480495 40.357227 40.232308 40.105761
39.977869 39.848652 39.718398 39.587124 39.455116 39.322387 39.189221 39.055625
38.921876 38.787974 38.654190 38.520511 38.387200 38.254234 38.121863 37.990054
37.859041 37.728781 37.599493 37.471121 37.343867 37.217664 37.092696 36.968885
36.846397 36.725143 36.605270 36.486679 36.369497 36.253618 36.139148 36.025976
35.914186 35.803662 35.694469 35.586486 35.479760 35.374167 35.269734 35.166337
35.063985 34.962555 34.862038 34.762312 34.663354 34.565044 34.467343 34.370138
34.273374 34.176945 34.080784 33.984792 33.888889
34.266667 34.387078 34.507594 34.628305 34.749326 34.870734 34.992653 35.115146
35.238343 35.362289 35.487121 35.612865 35.739662 35.867519 35.996578 36.126826
36.258406 36.391281 36.525593 36.661283 36.798489 36.937130 37.077338 37.219007
37.362264 37.506978 37.653267 37.800977 37.950216 38.100805 38.252841 38.406123
38.560735 38.716453 38.873347 39.031173 39.189989 39.349527 39.509834 39.670624
39.831929 39.993447 40.155198 40.316867 40.478460 40.639652 40.800439 40.960487
41.119784 41.277990 41.435086 41.590732 41.744904 41.897263 42.047781 42.196126
42.342269 42.485887 42.626951 42.765151 42.900460 43.032583 43.161498 43.286926
43.408850 43.527010 43.641396 43.751769 43.858123 43.960242 44.058126 44.151580
44.240610 44.325043 44.404889 44.479998 44.550383 44.615915 44.676609 44.732357
44.783173 44.828971 44.869764 44.905483 44.936142 44.961688 44.982133 44.997441
45.007621 45.012654 45.012544 45.007290 44.996890 44.981362 44.960699 44.934935
44.904060 44.868126 44.827120 44.781113 44.730089 44.674137 44.613243 44.547515
44.476938 44.401643 44.321616 44.237010 44.147813 44.054201 43.956168 43.853911
43.747428 43.636940 43.522451 43.404202 43.282205 43.156723 43.027771 42.895631
42.760326 42.622154 42.481142 42.337604 42.191569 42.043363 41.893016 41.740865
41.586936 41.431573 41.274800 41.116962 40.958079 40.798495 40.638222 40.477599
40.316630 40.155646 39.994640 39.833933 39.673506 39.513666 39.354380 39.195940
39.038300 38.881733 38.726180 38.571893 38.418800 38.267131 38.116802 37.968019
37.820685 37.674985 37.530810 37.388319 37.247394 37.108170 36.970520 36.834556
36.700141 36.567364 36.436084 36.306366 36.178064 36.051220 35.925687 35.801484
35.678463 35.556624 35.435818 35.316027 35.197105 35.079013 34.961611 34.844844
34.728577 34.612738 34.497204 34.381884 34.266667
34.644444 34.785118 34.925907 35.066939 35.208312 35.350169 35.492589 35.635723
35.779633 35.924477 36.070297 36.217256 36.365374 36.514816 36.665580 36.817832
36.971545 37.126884 37.283796 37.442443 37.602745 37.764860 37.928679 38.094354
38.261747 38.431001 38.601950 38.774727 38.949138 39.125301 39.302997 39.482329
39.663050 39.845251 40.028656 40.213342 40.399008 40.585715 40.773140 40.961326
41.149932 41.338985 41.528125 41.717365 41.906331 42.095023 42.283053 42.470412
42.656705 42.841911 43.025633 43.207843 43.388143 43.566501 43.742524 43.916177
44.087077 44.255187 44.420137 44.581894 44.740102 44.894733 45.045449 45.192229
45.334757 45.473016 45.606716 45.735846 45.860142 45.979599 46.093980 46.203287
46.307307 46.406049 46.499326 46.587153 46.669367 46.745985 46.816870 46.882041
46.941384 46.994918 47.042551 47.084301 47.120098 47.149955 47.173825 47.191717
47.203602 47.209485 47.209356 47.203217 47.191076 47.172929 47.148805 47.118695
47.082647 47.040648 46.992767 46.938989 46.879405 46.813997 46.742879 46.666033
46.583596 46.495553 46.402067 46.303122 46.198909 46.089419 45.974865 45.855246
45.730802 45.601536 45.467717 45.329355 45.186744 45.039900 44.889141 44.734490
44.576288 44.414564 44.249676 44.081659 43.910886 43.737395 43.561573 43.383455
43.203440 43.021560 42.838217 42.653439 42.467631 42.280812 42.093383 41.905354
41.717119 41.528676 41.340408 41.152301 40.964722 40.777642 40.591411 40.405985
40.221693 40.038475 39.856638 39.676105 39.497159 39.319708 39.144008 38.969951
38.797767 38.627335 38.458856 38.292196 38.127528 37.964707 37.803877 37.644885
37.487846 37.332598 37.179230 37.027574 36.877693 36.729412 36.582770 36.437592
36.293889 36.151488 36.010375 35.870380 35.731468 35.593471 35.456333 35.319895
35.184080 35.048737 34.913772 34.779045 34.644444
35.022222 35.183242 35.344401 35.505824 35.667663 35.830025 35.993075 36.156896
36.321666 36.487445 36.654417 36.822619 36.992239 37.163287 37.335956 37.510227
37.686293 37.864107 38.043858 38.225470 38.409127 38.594721 38.782431 38.972116
39.163944 39.357745 39.553674 39.751527 39.951447 40.153198 40.356908 40.562310
40.769514 40.978221 41.188527 41.400103 41.613024 41.826936 42.041895 42.257522
42.473855 42.690492 42.907455 43.124323 43.341100 43.557351 43.773066 43.987798
44.201526 44.413796 44.624577 44.833413 45.040267 45.244685 45.446626 45.645644
45.841696 46.034350 46.223563 46.408920 46.590383 46.767556 46.940406 47.108563
47.272001 47.430375 47.583668 47.731563 47.874052 48.010847 48.141949 48.267100
48.386307 48.499344 48.606223 48.706748 48.800936 48.888619 48.969817 49.044390
49.112358 49.173607 49.228158 49.275921 49.316912 49.351068 49.378400 49.398866
49.412475 49.419205 49.419059 49.412038 49.398138 49.377381 49.349759 49.315316
49.274038 49.225993 49.171161 49.109634 49.041391 48.966549 48.885085 48.797143
48.702701 48.601930 48.494812 48.381546 48.262119 48.136759 48.005460 47.868481
47.725823 47.577775 47.424346 47.265856 47.102322 46.934093 46.761194 46.584000
46.402544 46.217225 46.028083 45.835536 45.639629 45.440797 45.239086 45.034944
44.828415 44.619957 44.409609 44.197831 43.984655 43.770542 43.555513 43.340022
43.124078 42.908125 42.692158 42.476604 42.261443 42.047084 41.833488 41.621043
41.409691 41.199797 40.991283 40.784485 40.579310 40.376063 40.174632 39.975293
39.777918 39.582750 39.389644 39.198814 39.010100 38.823682 38.639389 38.457371
38.277443 38.099725 37.924025 37.750430 37.578743 37.409021 37.241065 37.074901
36.910329 36.747347 36.585759 36.425534 36.266480 36.108542 35.951535 35.795380
35.639899 35.484994 35.330498 35.176292 35.022222
35.400000 35.581467 35.763084 35.945016 36.127393 36.310397 36.494134 36.678800
36.864475 37.051365 37.239524 37.429164 37.620313 37.813184 38.007777 38.204306
38.402738 38.603287 38.805886 39.010746 39.217764 39.427145 39.638750 39.852775
40.069045 40.287744 40.508660 40.731963 40.957406 41.185140 41.414883 41.646769
41.880480 42.116130 42.353367 42.592285 42.832501 43.074085 43.316626 43.560175
43.804291 44.049004 44.293852 44.538846 44.783502 45.027815 45.271286 45.513895
45.755133 45.994966 46.232881 46.468835 46.702315 46.933272 47.161199 47.386045
47.607313 47.824953 48.038485 48.247862 48.452625 48.652733 48.847753 49.037651
49.222024 49.400846 49.573746 49.740708 49.901393 50.055797 50.203614 50.344848
50.479228 50.606768 50.727229 50.840631 50.946769 51.045668 51.137153 51.221251
51.297819 51.366883 51.428328 51.482178 51.528346 51.566852 51.597634 51.620706
51.636032 51.643619 51.643456 51.635542 51.619890 51.596493 51.565388 51.526560
51.480072 51.425904 51.364144 51.294770 51.217895 51.133495 51.041713 50.942524
50.836102 50.722424 50.601696 50.473899 50.339272 50.197804 50.049767 49.895158
49.734283 49.567150 49.394099 49.215146 49.030667 48.840687 48.645614 48.445482
48.240728 48.031394 47.817943 47.600424 47.379320 47.154684 46.927016 46.696370
46.463257 46.227727 45.990301 45.751020 45.510406 45.268493 45.025796 44.782336
44.538621 44.294654 44.050929 43.807434 43.564640 43.322516 43.081513 42.841577
42.603132 42.366104 42.130887 41.897386 41.665961 41.436499 41.209325 40.984305
40.761731 40.541449 40.323715 40.108359 39.895599 39.685251 39.477498 39.272142
39.069329 38.868850 38.670819 38.475017 38.281523 38.090115 37.900836 37.713462
37.528006 37.344243 37.162154 36.981519 36.802289 36.624250 36.447327 36.271314
36.096109 35.921518 35.747418 35.573627 35.400000
35.777778 35.979797 36.181993 36.384522 36.587579 36.791296 36.995884 37.201450
37.408216 37.616260 37.825814 38.036925 38.249833 38.464552 38.681323 38.900126
39.121204 39.344499 39.570251 39.798366 40.029075 40.262247 40.498103 40.736473
40.977566 41.221170 41.467480 41.716244 41.967640 42.221374 42.477604 42.735999
42.996693 43.259317 43.523984 43.790285 44.058311 44.327619 44.598275 44.869804
45.142249 45.415107 45.688397 45.961592 46.234691 46.507148 46.778942 47.049512
47.318824 47.586307 47.851915 48.115073 48.375726 48.633305 48.887749 49.138500
49.385494 49.628189 49.866525 50.099980 50.328500 50.551591 50.769206 50.980880
51.186579 51.385872 51.578735 51.764774 51.943976 52.115986 52.280802 52.438106
52.587910 52.729931 52.864190 52.990443 53.108714 53.218798 53.320723 53.414316
53.499607 53.576456 53.644892 53.704805 53.756221 53.799057 53.833335 53.859001
53.876068 53.884508 53.884328 53.875527 53.858100 53.832075 53.797440 53.754247
53.702478 53.642215 53.573431 53.496238 53.410608 53.316681 53.214429 53.104024
52.985438 52.858881 52.724327 52.582022 52.431946 52.274383 52.109323 51.937087
51.757675 51.571448 51.378417 51.178981 50.973164 50.761401 50.543727 50.320612
50.092101 49.858696 49.620450 49.377891 49.131078 48.880563 48.626406 48.369174
48.108928 47.846244 47.581178 47.314312 47.045692 46.775897 46.504961 46.233456
45.961401 45.689351 45.417307 45.145807 44.874829 44.604888 44.335939 44.068468
43.802408 43.538212 43.275789 43.015557 42.757403 42.501707 42.248332 41.997620
41.749412 41.504012 41.261239 41.021356 40.784165 40.549890 40.318315 40.089624
39.863590 39.640354 39.419681 39.201673 38.986086 38.772986 38.562123 38.353528
38.146951 37.942385 37.739583 37.538506 37.338911 37.140727 36.943720 36.747791
36.552715 36.358366 36.164535 35.971070 35.777778
36.155556 36.378250 36.601130 36.824400 37.048223 37.272821 37.498329 37.724986
37.952896 38.182310 38.413299 38.646124 38.880820 39.117653 39.356623 39.597995
39.841730 40.088094 40.337006 40.588726 40.843131 41.100473 41.360585 41.623706
41.889628 42.158572 42.430286 42.704974 42.982338 43.262561 43.545301 43.830719
44.118429 44.408566 44.700704 44.994950 45.290839 45.588452 45.887286 46.187395
46.488241 46.789856 47.091670 47.393690 47.695322 47.996550 48.296763 48.595925
48.893410 49.189168 49.482567 49.773544 50.061468 50.346269 50.627323 50.904557
51.177361 51.445665 51.708879 51.966936 52.219275 52.465838 52.706095 52.939999
53.167057 53.387235 53.600078 53.805568 54.003290 54.193240 54.375046 54.548716
54.713922 54.870681 55.018709 55.158031 55.288402 55.409855 55.522184 55.625422
55.719401 55.804155 55.879550 55.945617 56.002253 56.049485 56.087240 56.115538
56.134336 56.143643 56.143446 56.133744 56.114553 56.085863 56.047717 56.000096
55.943074 55.876624 55.800849 55.715719 55.621369 55.517766 55.405079 55.283275
55.152561 55.012906 54.864556 54.707486 54.541982 54.368030 54.185957 53.995759
53.797809 53.592113 53.379087 53.158752 52.931566 52.697565 52.457245 52.210655
51.958329 51.700326 51.437213 51.169059 50.896457 50.619480 50.338744 50.054324
49.766850 49.476394 49.183593 48.888513 48.591791 48.293482 47.994217 47.694034
47.393553 47.092792 46.792353 46.492230 46.193002 45.894638 45.597687 45.302094
45.008373 44.716442 44.426778 44.139272 43.854363 43.571914 43.292321 43.015423
42.741574 42.470587 42.202773 41.937924 41.676304 41.417689 41.162298 40.909888
40.660637 40.414288 40.170975 39.930433 39.692751 39.457658 39.225204 38.995114
38.767399 38.541784 38.318241 38.096500 37.876499 37.657974 37.440829 37.224811
37.009794 36.795537 36.581887 36.368620 36.155556
36.533333 36.776826 37.020535 37.264649 37.509405 37.754967 38.001589 38.249403
38.498678 38.749511 39.002184 39.256758 39.513520 39.772492 40.033966 40.297923
40.564653 40.834094 41.106533 41.381864 41.660362 41.941877 42.226673 42.514551
42.805760 43.100053 43.397661 43.698285 44.002138 44.308871 44.618670 44.931142
45.246444 45.564136 45.884348 46.206592 46.530971 46.856954 47.184613 47.513379
47.843294 48.173753 48.504771 48.835713 49.166567 49.496673 49.825997 50.153861
50.480210 50.804357 51.126231 51.445140 51.761005 52.073136 52.381450 52.685269
52.984508 53.278511 53.567196 53.849932 54.126648 54.396745 54.660162 54.916341
55.165233 55.406324 55.639580 55.864532 56.081162 56.289047 56.488186 56.678203
56.859110 57.030579 57.192632 57.344987 57.487676 57.620457 57.743369 57.856212
57.959024 58.051645 58.134111 58.206298 58.268238 58.319839 58.361126 58.392040
58.412595 58.422763 58.422550 58.411955 58.390973 58.359635 58.317924 58.265902
58.203543 58.130941 58.048063 57.955036 57.851821 57.738584 57.615283 57.482122
57.339062 57.186346 57.023943 56.852138 56.670908 56.480585 56.281157 56.073003
55.856126 55.630951 55.397497 55.156238 54.907206 54.650924 54.387438 54.117313
53.840612 53.557937 53.269363 52.975525 52.676506 52.372970 52.065003 51.753290
51.437916 51.119577 50.798355 50.474950 50.149433 49.822501 49.494210 49.165248
48.835649 48.506084 48.176565 47.847737 47.519587 47.192730 46.867124 46.543350
46.221336 45.901623 45.584110 45.269296 44.957049 44.647824 44.341458 44.038362
43.738344 43.441767 43.148415 42.858600 42.572087 42.289137 42.009494 41.733373
41.460501 41.191044 40.924719 40.661644 40.401524 40.144436 39.890078 39.638481
39.389344 39.142657 38.898119 38.655680 38.415046 38.176130 37.938646 37.702473
37.467340 37.233090 36.999471 36.766297 36.533333
36.911111 37.175545 37.440202 37.705328 37.971117 38.237837 38.505651 38.774844
39.045544 39.318049 39.592450 39.869055 40.147914 40.429339 40.713338 41.000226
41.289962 41.582860 41.878833 42.178185 42.480781 42.786915 43.096398 43.409512
43.726015 44.046170 44.369682 44.696791 45.027150 45.360972 45.697859 46.037996
46.380931 46.726818 47.075156 47.426067 47.779002 48.134049 48.490613 48.848752
49.207827 49.567865 49.928192 50.288803 50.648994 51.008733 51.367291 51.724613
52.079955 52.433242 52.783720 53.131301 53.475233 53.815416 54.151109 54.482210
54.807993 55.128360 55.442612 55.750656 56.051827 56.346044 56.632683 56.911677
57.182446 57.444942 57.698633 57.943489 58.179030 58.405245 58.621704 58.828413
59.024995 59.211471 59.387513 59.553155 59.708116 59.852437 59.985885 60.108505
60.220104 60.320727 60.410224 60.488634 60.555844 60.611886 60.656681 60.690253
60.712554 60.723598 60.723368 60.711866 60.689106 60.655078 60.609828 60.553333
60.485673 60.406816 60.316878 60.215816 60.103785 59.980741 59.846875 59.702145
59.546785 59.380755 59.204337 59.017499 58.820570 58.613531 58.396763 58.170259
57.934452 57.689355 57.435453 57.172775 56.901858 56.622752 56.336043 56.041795
55.740643 55.432665 55.118536 54.798347 54.472805 54.142010 53.806696 53.466964
53.123567 52.776603 52.426834 52.074350 51.719913 51.363600 51.006164 50.647664
50.288837 49.929716 49.571018 49.212746 48.855587 48.499516 48.145182 47.792527
47.442160 47.093992 46.748585 46.405815 46.066199 45.729579 45.396422 45.066539
44.740345 44.417623 44.098733 43.783432 43.472029 43.164257 42.860371 42.560084
42.263600 41.970616 41.681285 41.395290 41.112735 40.833297 40.557028 40.283603
40.013029 39.744980 39.479418 39.216021 38.954711 38.695173 38.437291 38.180762
37.925432 37.671016 37.417327 37.164097 36.911111
37.288889 37.574403 37.860173 38.146425 38.433439 38.721410 39.010638 39.301282
39.593660 39.887891 40.184305 40.482980 40.784253 41.088157 41.395033 41.704867
42.017997 42.334360 42.654289 42.977667 43.304820 43.635575 43.970242 44.308595
44.650926 44.996950 45.346936 45.700544 46.058016 46.418953 46.783568 47.151407
47.522648 47.896781 48.273953 48.653596 49.035822 49.420014 49.806247 50.193854
50.582875 50.972603 51.363041 51.753445 52.143787 52.533292 52.921905 53.308827
53.693980 54.076552 54.456445 54.832843 55.205634 55.574010 55.937852 56.296365
56.649431 56.996279 57.336798 57.670250 57.996533 58.314952 58.625420 58.927288
59.220490 59.504428 59.779057 60.043833 60.298734 60.543272 60.777446 61.000824
61.213423 61.414869 61.605193 61.784073 61.951553 62.107362 62.251549 62.383891
62.504439 62.613015 62.709667 62.794257 62.866828 62.927278 62.975640 63.011849
63.035926 63.047839 63.047593 63.035191 63.010625 62.973928 62.925080 62.864146
62.791095 62.706028 62.608904 62.499861 62.378851 62.246055 62.101422 61.945176
61.777270 61.597975 61.407250 61.205417 60.992447 60.768718 60.534213 60.289366
60.034181 59.769149 59.494293 59.210163 58.916803 58.614817 58.304273 57.985826
57.659562 57.326185 56.985797 56.639143 56.286337 55.928157 55.564722 55.196836
54.824618 54.448888 54.069758 53.688054 53.303875 52.918043 52.530638 52.142471
51.753596 51.364802 50.976116 50.588297 50.201339 49.815963 49.432132 49.050523
48.671062 48.294380 47.920365 47.549598 47.181930 46.817890 46.457292 46.100609
45.747625 45.398753 45.053747 44.712964 44.376129 44.043544 43.714909 43.390468
43.069904 42.753403 42.440633 42.131726 41.826339 41.524550 41.226010 40.930748
40.638410 40.348976 40.062097 39.777706 39.495459 39.215247 38.936736 38.659777
38.384052 38.109375 37.835444 37.562042 37.288889
37.666667 37.973421 38.280436 38.588002 38.896349 39.205789 39.516515 39.828862
40.142982 40.459224 40.777697 41.098761 41.422480 41.749219 42.078991 42.412163
42.748697 43.088955 43.432844 43.780719 44.132428 44.488314 44.848166 45.212307
45.580469 45.952951 46.329423 46.710158 47.094763 47.483481 47.875857 48.272102
48.671697 49.074817 49.480885 49.890035 50.301633 50.715775 51.131773 51.549682
51.968764 52.389035 52.809716 53.230783 53.651422 54.071575 54.490397 54.907804
55.322930 55.735666 56.145137 56.551218 56.953032 57.350443 57.742588 58.129327
58.509816 58.883922 59.250832 59.610422 59.961921 60.305220 60.639597 60.964965
61.280653 61.586601 61.882195 62.167399 62.441664 62.704975 62.956845 63.197283
63.425864 63.642615 63.847171 64.039574 64.219514 64.387045 64.541909 64.684164
64.813601 64.930279 65.034032 65.124914 65.202801 65.267737 65.319636 65.358529
65.384366 65.397162 65.396902 65.383585 65.357230 65.317819 65.265404 65.199955
65.121558 65.030169 64.925914 64.808741 64.678814 64.536076 64.380739 64.212744
64.032351 63.839507 63.634525 63.417363 63.188389 62.947577 62.695355 62.431716
62.157151 61.871675 61.575841 61.269688 60.953834 60.628341 60.293886 59.950556
59.599082 59.239572 58.872806 58.498908 58.118700 57.732317 57.340612 56.943724
56.542529 56.137163 55.728512 55.316704 54.902626 54.486386 54.068862 53.650141
53.231080 52.811736 52.392939 51.974710 51.557845 51.142327 50.728909 50.317534
49.908906 49.502929 49.100252 48.700739 48.304983 47.912809 47.524748 47.140590
46.760806 46.385148 46.014027 45.647164 45.284907 44.926950 44.573579 44.224465
43.879834 43.539337 43.203140 42.870880 42.542667 42.218126 41.897313 41.579847
41.265731 40.954586 40.646361 40.340682 40.037452 39.736306 39.437102 39.139488
38.843281 38.548147 38.253865 37.960123 37.666667
38.044444 38.372590 38.701032 39.030037 39.359929 39.690936 40.023408 40.357533
40.693676 41.031984 41.372835 41.716326 42.062847 42.412443 42.765507 43.122029
43.482402 43.846559 44.214885 44.587254 44.964039 45.345052 45.730649 46.120579
46.515175 46.914121 47.317724 47.725601 48.138027 48.554554 48.975421 49.400114
49.828833 50.260999 50.696771 51.135506 51.577320 52.021511 52.468149 52.916477
53.366523 53.817475 54.269322 54.721208 55.173082 55.624051 56.074030 56.522101
56.968146 57.411231 57.851218 58.287165 58.718920 59.145546 59.566884 59.982016
60.390782 60.792295 61.186404 61.572261 61.949730 62.318013 62.676997 63.025937
63.364749 63.692750 64.009883 64.315532 64.609667 64.891741 65.161751 65.419218
65.664162 65.896169 66.115280 66.321143 66.513813 66.692997 66.858757 67.010856