# vtk DataFile Version 3.0
Steady-state temperature (Jacobi)
ASCII
DATASET STRUCTURED_POINTS
DIMENSIONS 181 181 1
ORIGIN 0.0 0.0 0.0
SPACING 0.05 0.05 1.0
POINT_DATA 32761
SCALARS Temperature float 1
LOOKUP_TABLE default
32.000000 32.000000 32.000000 32.000000 32.000000 32.000000 32.000000 32.000000
32.000000 32.000000 32.000000 32.000000 32.000000 32.000000 32.000000 32.000000
32.000000 32.000000 32.000000 32.000000 32.000000 32.000000 32.000000 32.000000
32.000000 32.000000 32.000000 32.000000 32.000000 32.000000 32.000000 32.000000
32.000000 32.000000 32.000000 32.000000 32.000000 32.000000 32.000000 32.000000
32.000000 32.000000 32.000000 32.000000 32.000000 32.000000 32.000000 32.000000
32.000000 32.000000 32.000000 32.000000 32.000000 32.000000 32.000000 32.000000
32.000000 32.000000 32.000000 32.000000 32.000000 32.000000 32.000000 32.000000
32.000000 32.000000 32.000000 32.000000 32.000000 32.000000 32.000000 32.000000
32.000000 32.000000 32.000000 32.000000 32.000000 32.000000 32.000000 32.000000
32.000000 32.000000 32.000000 32.000000 32.000000 32.000000 32.000000 32.000000
32.000000 32.000000 32.000000 32.000000 32.000000 32.000000 32.000000 32.000000
32.000000 32.000000 32.000000 32.000000 32.000000 32.000000 32.000000 32.000000
32.000000 32.000000 32.000000 32.000000 32.000000 32.000000 32.000000 32.000000
32.000000 32.000000 32.000000 32.000000 32.000000 32.000000 32.000000 32.000000
32.000000 32.000000 32.000000 32.000000 32.000000 32.000000 32.000000 32.000000
32.000000 32.000000 32.000000 32.000000 32.000000 32.000000 32.000000 32.000000
32.000000 32.000000 32.000000 32.000000 32.000000 32.000000 32.000000 32.000000
32.000000 32.000000 32.000000 32.000000 32.000000 32.000000 32.000000 32.000000
32.000000 32.000000 32.000000 32.000000 32.000000 32.000000 32.000000 32.000000
32.000000 32.000000 32.000000 32.000000 32.000000 32.000000 32.000000 32.000000
32.000000 32.000000 32.000000 32.000000 32.000000 32.000000 32.000000 32.000000
32.000000 32.000000 32.000000 32.000000 32.000000
32.377778 32.394503 32.411249 32.428035 32.444880 32.461807 32.478830 32.495976
32.513253 32.530690 32.548293 32.566092 32.584088 32.602312 32.620762 32.639469
32.658426 32.677665 32.697174 32.716985 32.737082 32.757496 32.778206 32.799242
32.820580 32.842248 32.864216 32.886512 32.909101 32.932010 32.955198 32.978690
33.002441 33.026475 33.050743 33.075265 33.099989 33.124932 33.150038 33.175324
33.200729 33.226268 33.251877 33.277568 33.303277 33.329012 33.354708 33.380372
33.405936 33.431406 33.456715 33.481866 33.506792 33.531496 33.555912 33.580042
33.603821 33.627251 33.650268 33.672875 33.695011 33.716678 33.737819 33.758436
33.778475 33.797939 33.816778 33.834995 33.852543 33.869428 33.885607 33.901085
33.915823 33.929826 33.943062 33.955536 33.967218 33.978113 33.988196 33.997474
34.005924 34.013551 34.020338 34.026290 34.031393 34.035651 34.039054 34.041605
34.043298 34.044134 34.044111 34.043229 34.041491 34.038895 34.035446 34.031143
34.025994 34.019996 34.013163 34.005490 33.996995 33.987672 33.977543 33.966602
33.954875 33.942356 33.929075 33.915026 33.900244 33.884722 33.868500 33.851572
33.833982 33.815724 33.796846 33.777343 33.757267 33.736615 33.715440 33.693741
33.671577 33.648943 33.625902 33.602452 33.578656 33.554513 33.530088 33.505379
33.480453 33.455307 33.430010 33.404556 33.379015 33.353381 33.327723 33.302032
33.276377 33.250748 33.225210 33.199752 33.174438 33.149254 33.124261 33.099443
33.074856 33.050485 33.026380 33.002524 32.978964 32.955679 32.932714 32.910045
32.887712 32.865688 32.844011 32.822652 32.801642 32.780952 32.760609 32.740581
32.720892 32.701509 32.682450 32.663682 32.645218 32.627027 32.609115 32.591451
32.574038 32.556846 32.539873 32.523088 32.506487 32.490040 32.473739 32.457555
32.441478 32.425479 32.409545 32.393651 32.377778
32.755556 32.789022 32.822530 32.856116 32.889827 32.923691 32.957761 32.992059
33.026641 33.061521 33.096758 33.132359 33.168385 33.204836 33.241773 33.279188
33.317142 33.355619 33.394682 33.434302 33.474543 33.515369 33.556840 33.598911
33.641641 33.684975 33.728969 33.773558 33.818797 33.864612 33.911052 33.958034
34.005604 34.053671 34.102276 34.151319 34.200838 34.250724 34.301011 34.351583
34.402469 34.453547 34.504842 34.556227 34.607721 34.659195 34.710664 34.761995
34.813200 34.864143 34.914836 34.965142 35.015068 35.064480 35.113383 35.161646
35.209273 35.256134 35.302235 35.347450 35.391785 35.435120 35.477461 35.518694
35.558827 35.597753 35.635480 35.671912 35.707055 35.740821 35.773220 35.804170
35.833682 35.861685 35.888189 35.913131 35.936522 35.958307 35.978498 35.997047
36.013966 36.029216 36.042806 36.054706 36.064923 36.073436 36.080250 36.085350
36.088739 36.090410 36.090365 36.088602 36.085122 36.079932 36.073027 36.064423
36.054114 36.042123 36.028442 36.013100 35.996090 35.977449 35.957167 35.935291
35.911809 35.886777 35.860182 35.832090 35.802489 35.771451 35.738965 35.705114
35.669887 35.633374 35.595567 35.556564 35.516357 35.475053 35.432646 35.389248
35.344855 35.299587 35.253439 35.206537 35.158876 35.110587 35.061665 35.012243
34.962317 34.912022 34.861351 34.810441 34.759283 34.708012 34.656618 34.605235
34.553846 34.502586 34.451433 34.400517 34.349813 34.299445 34.249385 34.199748
34.150504 34.101762 34.053483 34.005772 33.958586 33.912019 33.866024 33.820688
33.775960 33.731917 33.688504 33.645789 33.603714 33.562338 33.521600 33.481548
33.442121 33.403358 33.365194 33.327661 33.290692 33.254309 33.218448 33.183119
33.148260 33.113873 33.079895 33.046321 33.013091 32.980192 32.947565 32.915190
32.883013 32.851006 32.819119 32.787317 32.755556
33.133333 33.183574 33.233873 33.284297 33.334895 33.385742 33.436876 33.488378
33.540277 33.592658 33.645538 33.699006 33.753068 33.807816 33.863243 33.919443
33.976395 34.034195 34.092809 34.152331 34.212713 34.274049 34.336277 34.399487
34.463605 34.528716 34.594731 34.661732 34.729617 34.798462 34.868150 34.938752
35.010138 35.082374 35.155314 35.229020 35.303333 35.378308 35.453776 35.529783
35.606152 35.682922 35.759907 35.837138 35.914424 35.991790 36.069038 36.146190
36.223042 36.299612 36.375696 36.451306 36.526239 36.600505 36.673902 36.746439
36.817919 36.888348 36.957535 37.025488 37.092023 37.157148 37.220687 37.282651
37.342874 37.401368 37.457979 37.512721 37.565452 37.616186 37.664796 37.711297
37.755575 37.797645 37.837407 37.874876 37.909966 37.942692 37.972979 38.000843
38.026221 38.049128 38.069512 38.087386 38.102712 38.115498 38.125718 38.133377
38.138461 38.140971 38.140903 38.138256 38.133037 38.125241 38.114885 38.101962
38.086500 38.068489 38.047968 38.024924 37.999409 37.971408 37.940984 37.908122
37.872896 37.835290 37.795394 37.753189 37.708779 37.662146 37.613406 37.562544
37.509688 37.454824 37.398093 37.339484 37.279150 37.217080 37.153440 37.088222
37.021600 36.953567 36.884309 36.813819 36.742289 36.669712 36.596287 36.522007
36.447074 36.371480 36.295429 36.218909 36.142127 36.065066 35.987930 35.910699
35.833574 35.756528 35.679757 35.603230 35.527135 35.451433 35.376305 35.301705
35.227804 35.154549 35.082100 35.010397 34.939589 34.869608 34.800590 34.732462
34.665345 34.599162 34.534021 34.469837 34.406704 34.344535 34.283408 34.223233
34.164074 34.105837 34.048574 33.992188 33.936717 33.882064 33.828253 33.775188
33.722879 33.671231 33.620243 33.569822 33.519953 33.470548 33.421582 33.372970
33.324675 33.276619 33.228755 33.181012 33.133333
33.511111 33.578171 33.645314 33.712613 33.780162 33.848020 33.916291 33.985020
34.054318 34.124215 34.194829 34.266175 34.338374 34.411426 34.485454 34.560441
34.636513 34.713635 34.791932 34.871351 34.952017 35.033858 35.116995 35.201338
35.287005 35.373886 35.462094 35.551501 35.642212 35.734082 35.827208 35.921426
36.016827 36.113228 36.210712 36.309078 36.408401 36.508465 36.609335 36.710781
36.812858 36.915325 37.018227 37.121313 37.224621 37.327888 37.431147 37.534129
37.636859 37.739066 37.840768 37.941693 38.041855 38.140984 38.239092 38.335911
38.431452 38.525455 38.617929 38.708623 38.797546 38.884460 38.969376 39.052067
39.132545 39.210601 39.286247 39.359290 39.429746 39.497437 39.562382 39.624420
39.683572 39.739695 39.792810 39.842791 39.889662 39.933313 39.973766 40.010929
40.044824 40.075373 40.102597 40.126434 40.146901 40.163952 40.177600 40.187814
40.194603 40.197950 40.197860 40.194331 40.187361 40.176965 40.163136 40.145903
40.125255 40.101235 40.073830 40.043098 40.009021 39.971675 39.931040 39.887207
39.840155 39.789993 39.736698 39.680397 39.621067 39.558854 39.493736 39.425875
39.355252 39.282046 39.206241 39.128032 39.047405 38.964574 38.879524 38.792485
38.703445 38.612646 38.520078 38.425994 38.330385 38.233513 38.135369 38.036221
37.936059 37.835155 37.733497 37.631358 37.528721 37.425860 37.322750 37.219664
37.116570 37.013733 36.911115 36.808973 36.707260 36.606223 36.505806 36.406243
36.307470 36.209706 36.112877 36.017188 35.922556 35.829168 35.736934 35.646023
35.556334 35.468022 35.380977 35.295335 35.210980 35.128028 35.046358 34.966068
34.887033 34.809331 34.732834 34.657601 34.583504 34.510584 34.438710 34.367906
34.298044 34.229130 34.161038 34.093757 34.027167 33.961239 33.895860 33.830986
33.766509 33.702373 33.638478 33.574754 33.511111
33.888889 33.972833 34.056875 34.141126 34.225670 34.310629 34.396071 34.482128
34.568851 34.656380 34.744746 34.834097 34.924445 35.015941 35.108576 35.202505
35.297697 35.394308 35.492285 35.591784 35.692726 35.795267 35.899305 36.004990
36.112197 36.221071 36.331463 36.443510 36.557040 36.672182 36.788740 36.906833
37.026244 37.147082 37.269105 37.392413 37.516746 37.642188 37.768463 37.895644
38.023436 38.151902 38.280732 38.409978 38.539318 38.668795 38.798078 38.927198
39.055820 39.183969 39.311303 39.437843 39.563249 39.687535 39.810365 39.931750
40.051362 40.169211 40.284977 40.398671 40.509986 40.618934 40.725224 40.828870
40.929598 41.027425 41.122097 41.213633 41.301800 41.386621 41.467884 41.545614
41.619621 41.689932 41.756379 41.818991 41.877621 41.932298 41.982896 42.029442
42.071834 42.110094 42.144140 42.173992 42.199586 42.220939 42.238006 42.250797
42.259285 42.263478 42.263365 42.258946 42.250232 42.237214 42.219922 42.198342
42.172521 42.142442 42.108169 42.069681 42.027062 41.980288 41.929463 41.874559
41.815703 41.752865 41.686194 41.615659 41.541432 41.463483 41.382004 41.296971
41.208595 41.116855 41.021986 40.923967 40.823055 40.719233 40.612776 40.503671
40.392212 40.278386 40.162503 40.044552 39.924855 39.803404 39.680529 39.556219
39.430815 39.304301 39.177022 39.048958 38.920454 38.791483 38.662389 38.533138
38.404065 38.275129 38.146657 38.018596 37.891262 37.764591 37.638884 37.514067
37.390424 37.267867 37.146665 37.026717 36.908270 36.791214 36.675773 36.561829
36.449581 36.338901 36.229967 36.122641 36.017077 35.913130 35.810931 35.710328
35.611428 35.514076 35.418354 35.324103 35.231386 35.140039 35.050103 34.961417
34.873997 34.787686 34.702479 34.618222 34.534890 34.452336 34.370516 34.289289
34.208593 34.128298 34.048324 33.968553 33.888889
34.266667 34.367569 34.468598 34.569863 34.671504 34.773613 34.876344 34.979768
35.084049 35.189237 35.295506 35.402881 35.511543 35.621494 35.732919 35.845794
35.960307 36.076406 36.194281 36.313852 36.435307 36.558538 36.683729 36.810745
36.939761 37.070616 37.203477 37.338153 37.474803 37.613207 37.753513 37.895474
38.039226 38.184495 38.331403 38.479651 38.629349 38.780173 38.932219 39.085141
39.239022 39.393497 39.548635 39.704055 39.859812 40.015515 40.171206 40.326483
40.481380 40.635489 40.788835 40.941009 41.092029 41.241488 41.389401 41.535368
41.679398 41.821104 41.960495 42.097195 42.231215 42.362199 42.490158 42.614754
42.736005 42.853594 42.967541 43.077556 43.183663 43.285594 43.383380 43.476778
43.565821 43.650295 43.730233 43.805448 43.875974 43.941648 44.002506 44.058410
44.109392 44.155340 44.196282 44.232130 44.262906 44.288547 44.309068 44.324427
44.334634 44.339668 44.339533 44.334228 44.323750 44.308121 44.287329 44.261417
44.230369 44.194250 44.153036 44.106816 44.055561 43.999385 43.938255 43.872309
43.801512 43.726028 43.645821 43.561080 43.471772 43.378112 43.280068 43.177882
43.071526 42.961267 42.847082 42.729264 42.607792 42.482985 42.354826 42.223656
42.089461 41.952604 41.813072 41.671245 41.527112 41.381068 41.233100 41.083614
40.932595 40.780454 40.627174 40.473167 40.318410 40.163315 40.007849 39.852419
39.696982 39.541937 39.387228 39.233241 39.079908 38.927600 38.776235 38.626164
38.477292 38.329949 38.184025 38.039827 37.897231 37.756519 37.617553 37.480589
37.345478 37.212447 37.081334 36.952342 36.825297 36.700372 36.577388 36.456487
36.337484 36.220494 36.105326 35.992066 35.880523 35.770755 35.662570 35.555998
35.450850 35.347132 35.244656 35.143404 35.043193 34.943984 34.845601 34.747981
34.650961 34.554455 34.458312 34.362429 34.266667
34.644444 34.762403 34.880499 34.998891 35.117696 35.237086 35.357158 35.478097
35.599976 35.722992 35.847190 35.972778 36.099772 36.228386 36.358610 36.490659
36.624493 36.760330 36.898097 37.038012 37.179968 37.324182 37.470513 37.619170
37.769982 37.923149 38.078465 38.236121 38.395878 38.557914 38.721958 38.888175
39.056260 39.226364 39.398153 39.571762 39.746826 39.923464 40.101287 40.280395
40.460375 40.641312 40.822773 41.004825 41.187019 41.369409 41.551530 41.733425
41.914620 42.095147 42.274528 42.452786 42.629443 42.804516 42.977532 43.148505
43.316971 43.482941 43.645968 43.806062 43.962794 44.116177 44.265804 44.411691
44.553456 44.691121 44.824330 44.953110 45.077135 45.196436 45.310717 45.420015
45.524064 45.622904 45.716300 45.804293 45.886681 45.963504 46.034588 46.099974
46.159516 46.213251 46.261064 46.302983 46.338922 46.368903 46.392864 46.410823
46.422742 46.428629 46.428471 46.422270 46.410037 46.391763 46.367487 46.337190
46.300936 46.258700 46.210572 46.156520 46.096661 46.030959 45.959558 45.882419
45.799716 45.711408 45.617700 45.518549 45.414192 45.304590 45.190007 45.070410
44.946095 44.817031 44.683546 44.545614 44.403591 44.257458 44.107599 43.953998
43.797064 43.636786 43.473596 43.307484 43.138900 42.967836 42.794758 42.619653
42.442998 42.264779 42.085476 41.905068 41.724037 41.542354 41.360497 41.178425
40.996608 40.814991 40.634033 40.453664 40.274326 40.095934 39.918908 39.743148
39.569051 39.396498 39.225861 39.057004 38.890272 38.725512 38.563037 38.402680
38.244724 38.088986 37.935717 37.784722 37.636217 37.489999 37.346249 37.204755
37.065666 36.928763 36.794162 36.661640 36.531279 36.402856 36.276422 36.151753
36.028869 35.907550 35.787788 35.669367 35.552251 35.436231 35.321246 35.207098
35.093699 34.980865 34.868484 34.756388 34.644444
35.022222 35.157338 35.292624 35.428227 35.564336 35.701076 35.838651 35.977158
36.116819 36.257700 36.400035 36.543860 36.689416 36.836708 36.985983 37.137212
37.290644 37.446216 37.604177 37.764425 37.927210 38.092391 38.260213 38.430496
38.603477 38.778939 38.957107 39.137727 39.321010 39.506664 39.694886 39.885347
40.078227 40.273161 40.470311 40.669279 40.870206 41.072663 41.276774 41.482078
41.688681 41.896096 42.104411 42.313117 42.522284 42.731386 42.940476 43.149017
43.357047 43.564021 43.769967 43.974338 44.177152 44.377864 44.576489 44.772490
44.965878 45.156131 45.343258 45.526757 45.706639 45.882426 46.054131 46.221305
46.383966 46.541693 46.694513 46.842037 46.984297 47.120940 47.252001 47.377165
47.496471 47.609639 47.716713 47.817445 47.911883 47.999814 48.081283 48.156112
48.224345 48.285833 48.340617 48.388581 48.429756 48.464057 48.491509 48.512054
48.525709 48.532444 48.532265 48.525172 48.511159 48.490255 48.462445 48.427784
48.386250 48.337927 48.282783 48.220933 48.152340 48.077151 47.995321 47.907030
47.812233 47.711143 47.603713 47.490191 47.370533 47.245022 47.113617 46.976638
46.834047 46.686199 46.533064 46.375032 46.212078 46.044625 45.872653 45.696619
45.516506 45.332798 45.145484 44.955070 44.761548 44.565444 44.366747 44.166000
43.963188 43.758863 43.553006 43.346169 43.138327 42.930030 42.721241 42.512504
42.303767 42.095562 41.887820 41.681058 41.475188 41.270706 41.067505 40.866056
40.666232 40.468476 40.272642 40.079139 39.887805 39.699013 39.512584 39.328855
39.147630 38.969209 38.793380 38.620408 38.450064 38.282577 38.117706 37.955642
37.796136 37.639339 37.484998 37.333226 37.183765 37.036693 36.891751 36.748980
36.608126 36.469193 36.331933 36.196317 36.062105 35.929237 35.797481 35.666751
35.536827 35.407594 35.278850 35.150455 35.022222
35.400000 35.552400 35.704980 35.857943 36.011443 36.165703 36.320848 36.477120
36.634612 36.793581 36.954087 37.116397 37.280536 37.446780 37.615117 37.785826
37.958857 38.134491 38.312638 38.493577 38.677176 38.863710 39.053003 39.245324
39.440453 39.638650 39.839650 40.043698 40.250489 40.460252 40.672638 40.887858
41.105523 41.325823 41.548330 41.773214 42.000007 42.228858 42.459267 42.691357
42.924599 43.159095 43.394287 43.630258 43.866426 44.102855 44.338946 44.574747
44.809647 45.043679 45.276226 45.507309 45.736314 45.963252 46.187516 46.409113
46.627448 46.842526 47.053772 47.261192 47.464234 47.662909 47.856694 48.045606
48.229153 48.407359 48.579771 48.746418 48.906885 49.061210 49.209017 49.350350
49.484873 49.612635 49.733341 49.847043 49.953485 50.052719 50.144528 50.228963
50.305843 50.375215 50.436934 50.491041 50.537424 50.576115 50.607037 50.630211
50.645591 50.653189 50.652989 50.644990 50.629209 50.605633 50.574309 50.535216
50.488430 50.433920 50.371798 50.302022 50.224738 50.139899 50.047686 49.948048
49.841204 49.727100 49.605995 49.477836 49.342919 49.201196 49.053005 48.898301
48.737463 48.570452 48.397688 48.219140 48.035264 47.846038 47.651956 47.453001
47.249702 47.042046 46.830592 46.615332 46.396848 46.175134 45.950792 45.723814
45.494814 45.263780 45.031335 44.797458 44.562772 44.327245 44.091495 43.855476
43.619794 43.384386 43.149843 42.916080 42.683667 42.452500 42.223120 41.995402
41.769856 41.546334 41.325313 41.106622 40.890702 40.677360 40.466998 40.259402
40.054933 39.853360 39.654999 39.459605 39.267452 39.078277 38.892314 38.709289
38.529390 38.352337 38.178275 38.006917 37.838368 37.672339 37.508892 37.347740
37.188906 37.032106 36.877326 36.724288 36.572944 36.423024 36.274447 36.126957
35.980438 35.834653 35.689457 35.544630 35.400000
35.777778 35.947590 36.117617 36.288045 36.459113 36.630978 36.803899 36.977999
37.153556 37.330658 37.509597 37.690422 37.873436 38.058648 38.246367 38.436560
38.629542 38.825233 39.023949 39.225565 39.430392 39.638259 39.849469 40.063805
40.281560 40.502467 40.726805 40.954260 41.185094 41.418947 41.656060 41.896025
42.139064 42.384724 42.633202 42.884001 43.137296 43.392549 43.649910 43.908804
44.169355 44.430956 44.693706 44.956973 45.220831 45.484624 45.748409 46.011511
46.273970 46.535102 46.794930 47.052769 47.308632 47.561836 47.812388 48.059615
48.303521 48.543453 48.779413 49.010772 49.237537 49.459109 49.675499 49.886144
50.091064 50.289734 50.482182 50.667927 50.847004 51.018976 51.183888 51.341346
51.491403 51.633711 51.768326 51.894945 52.013627 52.124112 52.226458 52.320448
52.406138 52.483348 52.552129 52.612341 52.664025 52.707078 52.741532 52.767317
52.784454 52.792908 52.792687 52.783789 52.766209 52.739980 52.705082 52.661584
52.609454 52.548797 52.479569 52.401912 52.315776 52.221339 52.118545 52.007614
51.888486 51.761423 51.626366 51.483619 51.333126 51.175237 51.009899 50.837508
50.658019 50.471873 50.279033 50.079985 49.874700 49.663707 49.446987 49.225107
48.998056 48.766438 48.530246 48.290114 48.046042 47.798687 47.548048 47.294801
47.038943 46.781162 46.521446 46.260488 45.998266 45.735471 45.472065 45.208731
44.945412 44.682775 44.420743 44.159962 43.900332 43.642469 43.386250 43.132261
42.880351 42.631071 42.384244 42.140380 41.899280 41.661409 41.426545 41.195109
40.966855 40.742159 40.520756 40.302972 40.088527 39.877698 39.670190 39.466234
39.265522 39.068238 38.874065 38.683141 38.495144 38.310167 38.127887 37.948351
37.771239 37.596557 37.423989 37.253499 37.084782 36.917764 36.752153 36.587836
36.424538 36.262114 36.100306 35.938939 35.777778
36.155556 36.342934 36.530535 36.718610 36.907349 37.097029 37.287805 37.479975
37.673656 37.869164 38.066576 38.266220 38.468132 38.672649 38.879760 39.089809
39.302738 39.518892 39.738163 39.960896 40.186931 40.416605 40.649709 40.886569
41.126922 41.371082 41.618732 41.870170 42.125025 42.383574 42.645396 42.910744
43.179147 43.450831 43.725276 44.002684 44.282487 44.564857 44.849186 45.135617
45.423502 45.712958 46.003301 46.294624 46.586214 46.878139 47.169663 47.460834
47.750903 48.039896 48.327058 48.612402 48.895174 49.175375 49.452259 49.725825
49.995341 50.260803 50.521506 50.777447 51.027951 51.273023 51.512022 51.744962
51.971246 52.190895 52.403358 52.608668 52.806321 52.996360 53.178332 53.352289
53.517828 53.675007 53.823473 53.963289 54.094151 54.216124 54.328950 54.432691
54.527135 54.612341 54.688136 54.754573 54.811521 54.859020 54.896979 54.925425
54.944305 54.953633 54.953391 54.943578 54.924213 54.895280 54.856836 54.808850
54.751415 54.684490 54.608206 54.522512 54.427579 54.323348 54.210033 54.087571
53.956222 53.815918 53.666969 53.509308 53.343293 53.168863 52.986424 52.795925
52.597822 52.392071 52.179179 51.959115 51.732432 51.499110 51.259750 51.014340
50.763523 50.507296 50.246341 49.980658 49.710962 49.437256 49.160277 48.880029
48.597265 48.311984 48.024948 47.736146 47.446341 47.155508 46.864403 46.572982
46.281990 45.991358 45.701811 45.413255 45.126388 44.841090 44.558024 44.277043
43.998772 43.723034 43.450412 43.180703 42.914442 42.651399 42.392060 42.136169
41.884164 41.635763 41.391353 41.150631 40.913930 40.680932 40.451915 40.226546
40.005053 39.787090 39.572832 39.361928 39.154502 38.950198 38.749091 38.550826
38.355429 38.162551 37.972172 37.783949 37.597820 37.413455 37.230748 37.049387
36.869226 36.689974 36.511449 36.333380 36.155556
36.533333 36.738430 36.943787 37.149632 37.356255 37.563848 37.772724 37.983037
38.195121 38.409087 38.625286 38.843782 39.064942 39.288779 39.515668 39.745574
39.978873 40.215479 40.455768 40.699597 40.947340 41.198796 41.454329 41.713684
41.977210 42.244594 42.516167 42.791559 43.071082 43.354305 43.641518 43.932233
44.226712 44.524415 44.825572 45.129591 45.436672 45.746174 46.058265 46.372259
46.688293 47.005640 47.324407 47.643831 47.963993 48.284101 48.604210 48.923508
49.242027 49.558943 49.874271 50.187181 50.497676 50.804932 51.108941 51.408895
51.704783 51.995817 52.281988 52.562540 52.837469 53.106055 53.368302 53.623537
53.871773 54.112385 54.345400 54.570245 54.786959 54.995022 55.194486 55.384887
55.566287 55.738275 55.900920 56.053868 56.197190 56.330584 56.454122 56.567550
56.670939 56.764081 56.847040 56.919653 56.981974 57.033882 57.075419 57.106504
57.127163 57.137357 57.137094 57.126375 57.105189 57.073577 57.031514 56.979078
56.916229 56.843087 56.759598 56.665926 56.562006 56.448047 56.323978 56.190054
56.046202 55.892726 55.729555 55.557044 55.375126 55.184212 54.984241 54.775679
54.558475 54.333152 54.099670 53.858607 53.609937 53.354288 53.091647 52.822694
52.547425 52.266564 51.980117 51.688845 51.392760 51.092655 50.788543 50.481238
50.170751 49.857913 49.542723 49.226018 48.907786 48.588860 48.269209 47.949654
47.630143 47.311478 46.993578 46.677220 46.362295 46.049545 45.738829 45.430851
45.125439 44.823251 44.524083 44.228545 43.936402 43.648211 43.363709 43.083397
42.806985 42.534919 42.266882 42.003263 41.743725 41.488598 41.237528 40.990786
40.748004 40.509396 40.274584 40.043726 39.816438 39.592822 39.372493 39.155500
38.941460 38.730372 38.521859 38.315871 38.112041 37.910274 37.710219 37.511736
37.314493 37.118310 36.922878 36.727980 36.533333
36.911111 37.134104 37.357364 37.581191 37.805816 38.031567 38.258635 38.487373
38.717926 38.950668 39.185698 39.423404 39.663834 39.907389 40.154063 40.404263
40.657925 40.915461 41.176748 41.442194 41.711617 41.985415 42.263347 42.545797
42.832463 43.123712 43.419177 43.719205 44.023367 44.331985 44.644567 44.961406
45.281951 45.606463 45.934330 46.265784 46.600156 46.937641 47.277519 47.619952
47.964172 48.310306 48.657544 49.005981 49.354772 49.703983 50.052742 50.401086
50.748127 51.093879 51.437444 51.778820 52.117109 52.452297 52.783496 53.110687
53.433002 53.750419 54.062102 54.368033 54.667413 54.960234 55.245740 55.523936
55.794118 56.056305 56.309848 56.554781 56.790515 57.017097 57.233999 57.441281
57.638476 57.825654 58.002407 58.168812 58.324519 58.469608 58.603784 58.727125
58.839389 58.940648 59.030709 59.109636 59.177281 59.233695 59.278775 59.312557
59.334978 59.346057 59.345775 59.334129 59.311142 59.276794 59.231147 59.174165
59.105951 59.026455 58.935823 58.833993 58.721158 58.597244 58.462497 58.316836
58.160559 57.993585 57.816266 57.628524 57.430771 57.222935 57.005487 56.778366
56.542104 56.296654 56.042609 55.779935 55.509285 55.230641 54.944712 54.651494
54.351748 54.045482 53.733503 53.415828 53.093302 52.765948 52.434640 52.099399
51.761122 51.419823 51.076410 50.730887 50.384160 50.036218 49.687959 49.339348
48.991266 48.643651 48.297358 47.952295 47.609283 47.268197 46.929817 46.593982
46.261428 45.931957 45.606254 45.284087 44.966085 44.651982 44.342348 44.036887
43.736108 43.439686 43.148067 42.860901 42.578572 42.300707 42.027628 41.758944
41.494915 41.235134 40.979802 40.728503 40.481376 40.238002 39.998462 39.762335
39.529647 39.299982 39.073311 38.849229 38.627654 38.408195 38.190722 37.974863
37.760442 37.547109 37.334647 37.122733 36.911111
37.288889 37.529950 37.771320 38.013269 38.256139 38.500159 38.745700 38.992944
39.242287 39.493862 39.748083 40.005033 40.265138 40.528424 40.795329 41.065819
41.340336 41.618784 41.901605 42.188639 42.480322 42.776428 43.077382 43.382892
43.693364 44.008442 44.328510 44.653141 44.982697 45.316683 45.655429 45.998375
46.345819 46.697134 47.052584 47.411480 47.774046 48.139536 48.508135 48.879043
49.252408 49.627378 50.004065 50.381577 50.759989 51.138376 51.516780 51.894252
52.270808 52.645481 53.018266 53.388193 53.755239 54.118439 54.477764 54.832263
55.181904 55.525764 55.863814 56.195168 56.519804 56.836885 57.146399 57.447561
57.740379 58.024125 58.298822 58.563809 58.819125 59.064174 59.299012 59.523109
59.736536 59.938827 60.130063 60.309842 60.478252 60.634952 60.780030 60.913203
61.034556 61.143859 61.241190 61.326369 61.399461 61.460334 61.509038 61.545487
61.569710 61.581666 61.581363 61.568803 61.543974 61.506920 61.457610 61.396129
61.322429 61.236641 61.138700 61.028787 60.906822 60.773038 60.627347 60.470036
60.301015 60.120627 59.928784 59.725890 59.511865 59.287175 59.051751 58.806126
58.550243 58.284703 58.009466 57.725199 57.431879 57.130237 56.820268 56.502763
56.177732 55.846021 55.507652 55.163518 54.813650 54.458977 54.099535 53.736281
53.369247 52.999408 52.626785 52.252362 51.876145 51.499110 51.121243 50.743507
50.365859 49.989238 49.613569 49.239758 48.867695 48.498244 48.131258 47.767554
47.406946 47.050196 46.697079 46.348300 46.003595 45.663608 45.328040 44.997468
44.671559 44.350826 44.034905 43.724242 43.418445 43.117893 42.822173 42.531595
42.245730 41.964820 41.688423 41.416718 41.149252 40.886142 40.626933 40.371679
40.119928 39.871674 39.626473 39.384262 39.144611 38.907401 38.672220 38.438899
38.207048 37.976450 37.746743 37.517667 37.288889
37.666667 37.925997 38.185640 38.445949 38.707194 38.969760 39.233872 39.499942
39.768144 40.038915 40.312373 40.588972 40.868773 41.152243 41.439381 41.730660
42.026017 42.325924 42.630251 42.939467 43.253374 43.572430 43.896365 44.225623
44.559862 44.899504 45.244136 45.594153 45.949069 46.309251 46.674138 47.044063
47.418394 47.797427 48.180460 48.567750 48.958529 49.353010 49.750365 50.150765
50.553324 50.958172 51.364375 51.772020 52.180133 52.588764 52.996905 53.404576
53.810745 54.215404 54.617510 55.017035 55.412936 55.805173 56.192713 56.575509
56.952555 57.323803 57.688282 58.045952 58.395888 58.738062 59.071604 59.396505
59.711954 60.017963 60.313789 60.599464 60.874316 61.138396 61.391105 61.632513
61.862091 62.079924 62.285553 62.479073 62.660092 62.828709 62.984596 63.127852
63.258206 63.375752 63.480276 63.571857 63.650335 63.715773 63.768059 63.807238
63.833242 63.846094 63.845773 63.832277 63.805630 63.765808 63.712877 63.646793
63.567669 63.475440 63.370268 63.252073 63.121068 62.977161 62.820623 62.651355
62.469686 62.275518 62.069243 61.850767 61.620551 61.378512 61.125179 60.860484
60.585029 60.298763 60.002363 59.695797 59.379813 59.054400 58.720374 58.377745
58.027390 57.669338 57.304521 56.932979 56.555693 56.172711 55.785049 55.392754
54.996869 54.597437 54.195510 53.791118 53.385317 52.978114 52.570554 52.162619
51.755331 51.348639 50.943534 50.539927 50.138770 49.739932 49.344315 48.951748
48.563076 48.178087 47.797564 47.421251 47.049868 46.683116 46.321649 45.965128
45.614136 45.268301 44.928131 44.593224 44.264016 43.940077 43.621773 43.308650
43.001001 42.698358 42.400941 42.108272 41.820501 41.537145 41.258286 40.983441
40.712628 40.445366 40.181614 39.920902 39.663128 39.407837 39.154873 38.903803
38.654417 38.406308 38.159219 37.912772 37.666667
38.044444 38.322232 38.600379 38.879199 39.159090 39.440320 39.723318 40.008299
40.295721 40.585743 40.878844 41.175123 41.475075 41.778736 42.086610 42.398668
42.715416 43.036757 43.363193 43.694556 44.031341 44.373303 44.720924 45.073884
45.432644 45.796807 46.166808 46.542172 46.923305 47.309651 47.701583 48.098467
48.500636 48.907382 49.318994 49.734690 50.154715 50.578219 51.005399 51.435341
51.868195 52.302990 52.739831 53.177696 53.616648 54.055625 54.494649 54.932629
55.369556 55.804316 56.236877 56.666118 57.091986 57.513369 57.930204 58.341398
58.746885 59.145605 59.537497 59.921546 60.297705 60.665014 61.023442 61.372093
61.710961 62.039219 62.356885 62.663208 62.958231 63.241280 63.512420 63.771058
64.017274 64.250554 64.470994 64.678150 64.872130 65.052558 65.219544 65.372780