<?xml version="1.0"?>
<VTKFile type="ImageData" version="0.1" byte_order="LittleEndian">
  <ImageData WholeExtent="0 180 0 180 0 0" Origin="0.0 0.0 0.0" Spacing="0.05 0.05 1">
    <Piece Extent="0 180 0 180 0 0">
      <PointData Scalars="Temperature">
        <DataArray type="Float32" Name="Temperature" format="ascii">
32.000000 32.000000 32.000000 32.000000 32.000000 32.000000 32.000000 32.000000 32.000000 32.000000 32.000000 32.000000 32.000000 32.000000 32.000000 32.000000 32.000000 32.000000 32.000000 32.000000 32.000000 32.000000 32.000000 32.000000 32.000000 32.000000 32.000000 32.000000 32.000000 32.000000 32.000000 32.000000 32.000000 32.000000 32.000000 32.000000 32.000000 32.000000 32.000000 32.000000 32.000000 32.000000 32.000000 32.000000 32.000000 32.000000 32.000000 32.000000 32.000000 32.000000 32.000000 32.000000 32.000000 32.000000 32.000000 32.000000 32.000000 32.000000 32.000000 32.000000 32.000000 32.000000 32.000000 32.000000 32.000000 32.000000 32.000000 32.000000 32.000000 32.000000 32.000000 32.000000 32.000000 32.000000 32.000000 32.000000 32.000000 32.000000 32.000000 32.000000 32.000000 32.000000 32.000000 32.000000 32.000000 32.000000 32.000000 32.000000 32.000000 32.000000 32.000000 32.000000 32.000000 32.000000 32.000000 32.000000 32.000000 32.000000 32.000000 32.000000 32.000000 32.000000 32.000000 32.000000 32.000000 32.000000 32.000000 32.000000 32.000000 32.000000 32.000000 32.000000 32.000000 32.000000 32.000000 32.000000 32.000000 32.000000 32.000000 32.000000 32.000000 32.000000 32.000000 32.000000 32.000000 32.000000 32.000000 32.000000 32.000000 32.000000 32.000000 32.000000 32.000000 32.000000 32.000000 32.000000 32.000000 32.000000 32.000000 32.000000 32.000000 32.000000 32.000000 32.000000 32.000000 32.000000 32.000000 32.000000 32.000000 32.000000 32.000000 32.000000 32.000000 32.000000 32.000000 32.000000 32.000000 32.000000 32.000000 32.000000 32.000000 32.000000 32.000000 32.000000 32.000000 32.000000 32.000000 32.000000 32.000000 32.000000 32.000000 32.000000 32.000000 32.000000 32.000000 32.000000 32.000000 32.000000 32.000000 32.000000 32.000000
32.377778 32.360957 32.344188 32.327525 32.311019 32.294719 32.278674 32.262929 32.247529 32.232513 32.217917 32.203777 32.190121 32.176976 32.164363 32.152302 32.140805 32.129884 32.119544 32.109791 32.100620 32.092033 32.084016 32.076568 32.069668 32.063312 32.057473 32.052146 32.047299 32.042926 32.038991 32.035490 32.032383 32.029668 32.027304 32.025290 32.023582 32.022185 32.021052 32.020193 32.019558 32.019162 32.018953 32.018952 32.019104 32.019434 32.019886 32.020490 32.021186 32.022011 32.022903 32.023901 32.024942 32.026068 32.027217 32.028432 32.029651 32.030919 32.032173 32.033461 32.034720 32.036000 32.037238 32.038484 32.039678 32.040869 32.042001 32.043119 32.044173 32.045207 32.046172 32.047111 32.047980 32.048818 32.049586 32.050320 32.050985 32.051615 32.052178 32.052703 32.053166 32.053591 32.053956 32.054281 32.054552 32.054782 32.054961 32.055098 32.055187 32.055232 32.055232 32.055187 32.055098 32.054961 32.054782 32.054552 32.054281 32.053956 32.053590 32.053166 32.052703 32.052177 32.051613 32.050984 32.050318 32.049583 32.048814 32.047975 32.047105 32.046165 32.045198 32.044162 32.043106 32.041984 32.040848 32.039653 32.038453 32.037201 32.035954 32.034665 32.033394 32.032093 32.030822 32.029536 32.028295 32.027054 32.025875 32.024714 32.023633 32.022589 32.021644 32.020759 32.019993 32.019310 32.018770 32.018339 32.018075 32.017950 32.018018 32.018257 32.018719 32.019387 32.020310 32.021477 32.022934 32.024676 32.026747 32.029144 32.031911 32.035048 32.038595 32.042558 32.046972 32.051844 32.057207 32.063068 32.069454 32.076373 32.083846 32.091879 32.100487 32.109672 32.119442 32.129793 32.140727 32.152233 32.164304 32.176925 32.190077 32.203739 32.217886 32.232486 32.247507 32.262911 32.278659 32.294707 32.311010 32.327518 32.344184 32.360954 32.377778
32.755556 32.721914 32.688377 32.655052 32.622039 32.589440 32.557351 32.525862 32.495062 32.465030 32.435841 32.407561 32.380252 32.353962 32.328740 32.304618 32.281629 32.259788 32.239115 32.219608 32.201276 32.184099 32.168079 32.153181 32.139397 32.126683 32.115026 32.104369 32.094699 32.085950 32.078110 32.071105 32.064927 32.059494 32.054805 32.050773 32.047405 32.044607 32.042396 32.040673 32.039465 32.038668 32.038319 32.038311 32.038690 32.039343 32.040329 32.041529 32.043010 32.044652 32.046528 32.048514 32.050693 32.052936 32.055333 32.057753 32.060290 32.062816 32.065424 32.067989 32.070607 32.073154 32.075726 32.078205 32.080686 32.083054 32.085405 32.087629 32.089818 32.091872 32.093878 32.095742 32.097548 32.099211 32.100807 32.102263 32.103647 32.104895 32.106066 32.107107 32.108070 32.108911 32.109671 32.110315 32.110878 32.111334 32.111706 32.111977 32.112162 32.112252 32.112251 32.112161 32.111977 32.111706 32.111334 32.110878 32.110315 32.109670 32.108910 32.108069 32.107106 32.106064 32.104892 32.103643 32.102259 32.100802 32.099204 32.097539 32.095731 32.093863 32.091855 32.089797 32.087602 32.085371 32.083013 32.080635 32.078143 32.075651 32.073062 32.070496 32.067856 32.065264 32.062623 32.060060 32.057479 32.055007 32.052551 32.050238 32.047979 32.045900 32.043918 32.042155 32.040535 32.039178 32.038014 32.037160 32.036555 32.036311 32.036378 32.036862 32.037724 32.039065 32.040857 32.043195 32.046062 32.049550 32.053650 32.058449 32.063946 32.070224 32.077290 32.085218 32.094022 32.103768 32.114474 32.126197 32.138953 32.152793 32.167726 32.183794 32.201000 32.219370 32.238902 32.259605 32.281467 32.304480 32.328618 32.353859 32.380162 32.407486 32.435776 32.464976 32.495016 32.525825 32.557320 32.589416 32.622020 32.655038 32.688368 32.721909 32.755556
33.133333 33.082872 33.032568 32.982581 32.933063 32.884166 32.836033 32.788803 32.742604 32.697559 32.653777 32.611362 32.570399 32.530972 32.493141 32.456967 32.422485 32.389737 32.358730 32.329487 32.301991 32.276249 32.252221 32.229902 32.209232 32.190196 32.172716 32.156774 32.142277 32.129206 32.117455 32.107010 32.097753 32.089679 32.082659 32.076699 32.071662 32.067567 32.064267 32.061798 32.060006 32.058940 32.058440 32.058570 32.059163 32.060300 32.061805 32.063774 32.066024 32.068665 32.071508 32.074675 32.077972 32.081531 32.085155 32.088982 32.092817 32.096803 32.100743 32.104786 32.108738 32.112749 32.116631 32.120533 32.124274 32.128002 32.131545 32.135045 32.138342 32.141574 32.144593 32.147527 32.150243 32.152861 32.155261 32.157553 32.159632 32.161595 32.163354 32.164994 32.166439 32.167762 32.168902 32.169918 32.170762 32.171479 32.172037 32.172464 32.172740 32.172882 32.172882 32.172740 32.172463 32.172036 32.171479 32.170761 32.169917 32.168901 32.167760 32.166437 32.164991 32.163351 32.161591 32.159626 32.157546 32.155252 32.152850 32.150230 32.147510 32.144572 32.141548 32.138310 32.135004 32.131494 32.127940 32.124198 32.120440 32.116518 32.112612 32.108572 32.104585 32.100502 32.096514 32.092472 32.088571 32.084667 32.080953 32.077290 32.073872 32.070567 32.067564 32.064741 32.062283 32.060079 32.058307 32.056869 32.055937 32.055428 32.055506 32.056103 32.057376 32.059272 32.061941 32.065348 32.069633 32.074777 32.080914 32.088036 32.096272 32.105625 32.116215 32.128054 32.141253 32.155829 32.171882 32.189431 32.208561 32.229292 32.251689 32.275768 32.301575 32.329113 32.358408 32.389450 32.422241 32.456750 32.492957 32.530811 32.570264 32.611244 32.653679 32.697475 32.742534 32.788744 32.835986 32.884128 32.933034 32.982559 33.032555 33.082865 33.133333
33.511111 33.443830 33.376762 33.310113 33.244093 33.178898 33.114725 33.051753 32.990160 32.930103 32.871735 32.815185 32.760578 32.708012 32.657585 32.609358 32.563402 32.519744 32.478426 32.439443 32.402815 32.368503 32.336509 32.306764 32.279256 32.253891 32.230650 32.209416 32.190167 32.172766 32.157194 32.143301 32.131074 32.120347 32.111123 32.103223 32.096664 32.091257 32.087039 32.083808 32.081622 32.080270 32.079830 32.080081 32.081122 32.082720 32.084998 32.087712 32.091002 32.094617 32.098714 32.103033 32.107747 32.112591 32.117748 32.122951 32.128393 32.133804 32.139385 32.144870 32.150461 32.155899 32.161386 32.166672 32.171958 32.177004 32.182007 32.186742 32.191399 32.195767 32.200029 32.203993 32.207827 32.211361 32.214749 32.217840 32.220775 32.223422 32.225906 32.228114 32.230155 32.231936 32.233546 32.234912 32.236104 32.237069 32.237856 32.238430 32.238821 32.239012 32.239012 32.238821 32.238430 32.237856 32.237069 32.236104 32.234911 32.233544 32.231934 32.230152 32.228111 32.225901 32.223416 32.220768 32.217831 32.214737 32.211346 32.207809 32.203970 32.200001 32.195732 32.191355 32.186688 32.181940 32.176922 32.171857 32.166549 32.161236 32.155716 32.150240 32.144603 32.139064 32.133420 32.127933 32.122403 32.117097 32.111820 32.106838 32.101963 32.097458 32.093149 32.089291 32.085724 32.082696 32.080062 32.078062 32.076570 32.075815 32.075691 32.076418 32.077911 32.080378 32.083757 32.088245 32.093801 32.100614 32.108660 32.118118 32.128983 32.141422 32.155444 32.171204 32.188721 32.208135 32.229473 32.252855 32.278309 32.305936 32.335757 32.367851 32.402227 32.438937 32.477972 32.519355 32.563056 32.609065 32.657326 32.707794 32.760387 32.815025 32.871596 32.929989 32.990063 33.051674 33.114659 33.178847 33.244052 33.310085 33.376742 33.443821 33.511111
33.888889 33.804791 33.720958 33.637652 33.555129 33.473642 33.393428 33.314721 33.237734 33.162673 33.089717 33.019043 32.950792 32.885103 32.822077 32.761820 32.704385 32.649846 32.598214 32.549529 32.503763 32.460930 32.420961 32.383851 32.349497 32.317881 32.288869 32.262436 32.238423 32.216806 32.197401 32.180195 32.164983 32.151765 32.140320 32.130667 32.122569 32.116066 32.110908 32.107161 32.104559 32.103196 32.102792 32.103466 32.104927 32.107321 32.110341 32.114158 32.118455 32.123425 32.128739 32.134610 32.140702 32.147243 32.153892 32.160890 32.167894 32.175154 32.182328 32.189674 32.196853 32.204128 32.211167 32.218233 32.225008 32.231750 32.238158 32.244481 32.250440 32.256272 32.261722 32.267012 32.271911 32.276627 32.280953 32.285078 32.288822 32.292354 32.295520 32.298467 32.301067 32.303443 32.305492 32.307316 32.308833 32.310121 32.311122 32.311888 32.312385 32.312639 32.312639 32.312385 32.311887 32.311121 32.310120 32.308832 32.307314 32.305491 32.303441 32.301063 32.298463 32.295514 32.292347 32.288813 32.285067 32.280938 32.276609 32.271888 32.266984 32.261686 32.256228 32.250385 32.244413 32.238074 32.231647 32.224882 32.218078 32.210979 32.203899 32.196577 32.189340 32.181927 32.174673 32.167319 32.160205 32.153078 32.146280 32.139565 32.133273 32.127170 32.121590 32.116317 32.111674 32.107463 32.103998 32.101103 32.099078 32.097772 32.097472 32.098054 32.099789 32.102582 32.106690 32.112044 32.118890 32.127183 32.137156 32.148788 32.162298 32.177686 32.195154 32.214720 32.236567 32.260725 32.287358 32.316496 32.348282 32.382745 32.419997 32.460058 32.503009 32.548852 32.597632 32.649327 32.703942 32.761427 32.821745 32.884811 32.950546 33.018829 33.089539 33.162519 33.237608 33.314615 33.393343 33.473573 33.555077 33.637614 33.720934 33.804779 33.888889
34.266667 34.165754 34.065160 33.965197 33.866176 33.768396 33.672148 33.577706 33.485334 33.395267 33.307738 33.222939 33.141060 33.062246 32.986647 32.914354 32.845474 32.780049 32.718145 32.659752 32.604903 32.553540 32.505667 32.461182 32.420071 32.382191 32.347517 32.315872 32.287228 32.261378 32.238302 32.217764 32.199758 32.184028 32.170587 32.159158 32.149780 32.142156 32.136356 32.132063 32.129382 32.127976 32.127981 32.129046 32.131338 32.134489 32.138697 32.143577 32.149357 32.155637 32.162670 32.170045 32.178037 32.186224 32.194900 32.203638 32.212746 32.221795 32.231104 32.240247 32.249549 32.258593 32.267704 32.276479 32.285241 32.293606 32.301888 32.309727 32.317426 32.324650 32.331688 32.338235 32.344561 32.350391 32.355976 32.361072 32.365904 32.370264 32.374350 32.377985 32.381339 32.384268 32.386913 32.389159 32.391117 32.392701 32.393993 32.394936 32.395578 32.395891 32.395890 32.395577 32.394936 32.393993 32.392700 32.391115 32.389157 32.386911 32.384265 32.381336 32.377980 32.374344 32.370256 32.365894 32.361058 32.355959 32.350370 32.344534 32.338201 32.331645 32.324597 32.317360 32.309646 32.301788 32.293483 32.285090 32.276294 32.267478 32.258319 32.249217 32.239847 32.230622 32.221218 32.212056 32.202815 32.193923 32.185067 32.176672 32.168439 32.160787 32.153435 32.146791 32.140595 32.135243 32.130501 32.126749 32.123780 32.121958 32.121108 32.121575 32.123218 32.126364 32.130905 32.137150 32.145025 32.154823 32.166497 32.180325 32.196288 32.214643 32.235396 32.258784 32.284829 32.313744 32.345563 32.380470 32.418500 32.459808 32.504421 32.552457 32.603928 32.658911 32.717392 32.779404 32.844901 32.913866 32.986217 33.061884 33.140742 33.222673 33.307508 33.395077 33.485171 33.577575 33.672039 33.768310 33.866109 33.965149 34.065128 34.165739 34.266667
34.644444 34.526720 34.409366 34.292751 34.177233 34.063167 33.950886 33.840718 33.732959 33.627902 33.525797 33.426892 33.331383 33.239471 33.151293 33.067000 32.986669 32.910404 32.838221 32.770180 32.706239 32.646423 32.590636 32.538874 32.490992 32.446970 32.406618 32.369910 32.336618 32.306717 32.279946 32.256295 32.235472 32.217487 32.202023 32.189118 32.178429 32.170031 32.163554 32.159111 32.156311 32.155304 32.155678 32.157621 32.160699 32.165140 32.170486 32.177002 32.184212 32.192411 32.201106 32.210622 32.220451 32.230942 32.241578 32.252727 32.263867 32.275380 32.286747 32.298357 32.309699 32.321167 32.332264 32.343381 32.354040 32.364629 32.374695 32.384612 32.393959 32.403095 32.411632 32.419909 32.427574 32.434943 32.441703 32.448142 32.453987 32.459495 32.464432 32.469023 32.473073 32.476773 32.479963 32.482799 32.485160 32.487161 32.488718 32.489909 32.490682 32.491077 32.491077 32.490682 32.489908 32.488717 32.487160 32.485158 32.482797 32.479960 32.476769 32.473069 32.469017 32.464424 32.459485 32.453974 32.448126 32.441683 32.434918 32.427542 32.419869 32.411582 32.403033 32.393882 32.384517 32.374577 32.364485 32.353863 32.343164 32.332000 32.320848 32.309312 32.297890 32.286185 32.274707 32.263062 32.251768 32.240439 32.229594 32.218859 32.208749 32.198909 32.189842 32.181218 32.173524 32.166457 32.160488 32.155345 32.151478 32.148651 32.147292 32.147204 32.148792 32.151898 32.156905 32.163695 32.172631 32.183631 32.197035 32.212799 32.231240 32.252344 32.276405 32.303433 32.333694 32.367216 32.404237 32.444790 32.489078 32.537133 32.589118 32.645052 32.705052 32.769115 32.837305 32.909587 32.985972 33.066382 33.150769 33.239011 33.330997 33.426555 33.525517 33.627661 33.732762 33.840551 33.950753 34.063059 34.177152 34.292690 34.409327 34.526701 34.644444
35.022222 34.887689 34.753580 34.620314 34.488307 34.357955 34.229650 34.103755 33.980625 33.860575 33.743914 33.630900 33.521789 33.416773 33.316054 33.219755 33.128023 33.040910 32.958512 32.880813 32.807864 32.739582 32.675986 32.616931 32.562411 32.512229 32.466364 32.424572 32.386832 32.352856 32.322634 32.295841 32.272488 32.252217 32.235068 32.220652 32.209046 32.199832 32.193129 32.188491 32.186081 32.185424 32.186731 32.189499 32.193984 32.199656 32.206814 32.214903 32.224261 32.234311 32.245426 32.257009 32.269465 32.282180 32.295585 32.309059 32.323050 32.336935 32.351176 32.365155 32.379342 32.393131 32.406994 32.420344 32.433650 32.446352 32.458907 32.470791 32.482443 32.493379 32.504016 32.513913 32.523461 32.532263 32.540681 32.548364 32.555640 32.562206 32.568351 32.573820 32.578860 32.583262 32.587232 32.590604 32.593541 32.595919 32.597856 32.599271 32.600232 32.600701 32.600701 32.600232 32.599270 32.597855 32.595918 32.593539 32.590602 32.587228 32.583257 32.578854 32.573813 32.568343 32.562195 32.555626 32.548346 32.540658 32.532234 32.523424 32.513867 32.503959 32.493308 32.482355 32.470682 32.458773 32.446187 32.433447 32.420097 32.406693 32.392766 32.378900 32.364621 32.350534 32.336165 32.322130 32.307963 32.294283 32.280639 32.267645 32.254869 32.242915 32.231376 32.220840 32.210928 32.202210 32.194340 32.187865 32.182478 32.178700 32.176267 32.175672 32.176697 32.179807 32.184831 32.192207 32.201809 32.214048 32.228843 32.246577 32.267206 32.291089 32.318213 32.348906 32.383182 32.421334 32.463391 32.509609 32.560022 32.614840 32.674091 32.737936 32.806381 32.879534 32.957368 33.039930 33.127152 33.219014 33.315400 33.416221 33.521306 33.630496 33.743565 33.860287 33.980379 34.103556 34.229484 34.357825 34.488205 34.620242 34.753532 34.887665 35.022222
35.400000 35.248662 35.097801 34.947891 34.799394 34.652767 34.508439 34.366832 34.228329 34.093306 33.962086 33.834991 33.712272 33.594191 33.480925 33.372672 33.269529 33.171636 33.079012 32.991743 32.909771 32.833137 32.761714 32.695509 32.634330 32.578165 32.526763 32.480105 32.437888 32.400102 32.366395 32.336778 32.310859 32.288676 32.269801 32.254311 32.241742 32.232217 32.225236 32.220974 32.218897 32.219233 32.221411 32.225714 32.231538 32.239216 32.248112 32.258607 32.270034 32.282819 32.296268 32.310844 32.325833 32.341729 32.357803 32.374575 32.391310 32.408545 32.425546 32.442864 32.459774 32.476831 32.493332 32.509830 32.525649 32.541332 32.556241 32.570904 32.584726 32.598212 32.610815 32.623014 32.634314 32.645160 32.655111 32.664575 32.673168 32.681253 32.688503 32.695234 32.701175 32.706593 32.711268 32.715418 32.718874 32.721801 32.724079 32.725819 32.726950 32.727527 32.727527 32.726950 32.725819 32.724078 32.721800 32.718872 32.715415 32.711264 32.706588 32.701169 32.695227 32.688493 32.681241 32.673152 32.664555 32.655086 32.645127 32.634273 32.622963 32.610751 32.598132 32.584627 32.570782 32.556090 32.541146 32.525421 32.509552 32.492994 32.476420 32.459276 32.442263 32.424824 32.407679 32.390275 32.373342 32.356338 32.339995 32.323786 32.308436 32.293444 32.279517 32.266185 32.254135 32.242932 32.233235 32.224654 32.217815 32.212376 32.208931 32.207188 32.207706 32.210248 32.215341 32.222798 32.233113 32.246154 32.262381 32.281708 32.304565 32.330907 32.361129 32.395222 32.433541 32.476103 32.523223 32.574928 32.631486 32.692925 32.759459 32.831102 32.908007 32.990162 33.077652 33.170424 33.268494 33.371756 33.480148 33.593509 33.711699 33.834492 33.961671 34.092949 34.228036 34.366585 34.508242 34.652607 34.799274 34.947801 35.097743 35.248633 35.400000
35.777778 35.609639 35.442032 35.275480 35.110505 34.947602 34.787265 34.629944 34.476089 34.326090 34.180340 34.039159 33.902872 33.771719 33.645958 33.525740 33.411258 33.302573 33.199814 33.102959 33.012082 32.927076 32.847977 32.774599 32.706949 32.644774 32.588067 32.536511 32.490102 32.448468 32.411621 32.379138 32.351060 32.326918 32.306796 32.290180 32.277202 32.267307 32.260684 32.256735 32.255708 32.256964 32.260813 32.266573 32.274614 32.284214 32.295798 32.308608 32.323121 32.338542 32.355395 32.372858 32.391493 32.410454 32.430338 32.450285 32.470917 32.491370 32.512282 32.532797 32.553562 32.573739 32.593977 32.613466 32.632848 32.651353 32.669607 32.686887 32.703798 32.719672 32.735084 32.749426 32.763239 32.775975 32.788134 32.799235 32.809729 32.819202 32.828054 32.835933 32.843184 32.849519 32.855225 32.860074 32.864291 32.867709 32.870488 32.872519 32.873898 32.874572 32.874572 32.873898 32.872518 32.870487 32.867707 32.864289 32.860071 32.855221 32.849514 32.843177 32.835924 32.828043 32.819188 32.809711 32.799212 32.788105 32.775938 32.763193 32.749369 32.735013 32.719583 32.703688 32.686751 32.669439 32.651146 32.632596 32.613157 32.593601 32.573282 32.553009 32.532129 32.511479 32.490408 32.469767 32.448915 32.428711 32.408527 32.389218 32.370182 32.352257 32.334873 32.318844 32.303639 32.290043 32.277569 32.266965 32.257797 32.250775 32.245518 32.242697 32.241992 32.244031 32.248556 32.256154 32.266626 32.280522 32.297701 32.318671 32.343344 32.372190 32.405165 32.442695 32.484773 32.531779 32.583727 32.640947 32.703462 32.771545 32.845212 32.924672 33.009919 33.101091 33.198146 33.301142 33.409988 33.524659 33.645005 33.770915 33.902169 34.038570 34.179831 34.325669 34.475730 34.629653 34.787023 34.947414 35.110357 35.275375 35.441962 35.609605 35.777778
36.155556 35.970622 35.786273 35.603089 35.421635 35.242472 35.066124 34.893110 34.723899 34.558954 34.398668 34.243441 34.093579 33.949407 33.811141 33.679031 33.553194 33.433811 33.320901 33.214582 33.114779 33.021559 32.934757 32.854403 32.780252 32.712313 32.650265 32.594114 32.543472 32.498357 32.458321 32.423410 32.393120 32.367539 32.346110 32.328973 32.315520 32.305952 32.299613 32.296768 32.296711 32.299777 32.305207 32.313407 32.323568 32.336161 32.350331 32.366608 32.384093 32.403373 32.423510 32.445138 32.467288 32.490636 32.514189 32.538656 32.563033 32.588053 32.612713 32.637762 32.662211 32.686812 32.710607 32.734343 32.757102 32.779619 32.801026 32.822038 32.841846 32.861137 32.879167 32.896586 32.912724 32.928186 32.942375 32.955845 32.968078 32.979569 32.989874 32.999428 33.007862 33.015542 33.022172 33.028049 33.032945 33.037086 33.040312 33.042772 33.044372 33.045188 33.045188 33.044372 33.042771 33.040310 33.037084 33.032943 33.028045 33.022168 33.015536 33.007855 32.999419 32.989862 32.979553 32.968059 32.955821 32.942343 32.928146 32.912674 32.896524 32.879089 32.861039 32.841725 32.821889 32.800842 32.779392 32.756824 32.734003 32.710193 32.686310 32.661602 32.637028 32.611831 32.586994 32.561768 32.537148 32.512399 32.488516 32.464787 32.442195 32.420058 32.399337 32.379389 32.361142 32.344000 32.328851 32.315155 32.303753 32.294165 32.287186 32.282399 32.280552 32.281295 32.285326 32.292366 32.303064 32.317208 32.335400 32.357492 32.384038 32.414947 32.450723 32.491324 32.537202 32.588348 32.645161 32.707650 32.776153 32.850682 32.931508 33.018629 33.112239 33.212306 33.318942 33.432067 33.551703 33.677713 33.810023 33.948426 34.092754 34.242723 34.398071 34.558441 34.723478 34.892756 35.065840 35.242242 35.421461 35.602960 35.786190 35.970581 36.155556
36.533333 36.331611 36.130528 35.930714 35.732796 35.537371 35.345033 35.156324 34.971786 34.791888 34.617107 34.447826 34.284442 34.127241 33.976542 33.832526 33.695431 33.565331 33.442395 33.326590 33.218022 33.116558 33.022259 32.934896 32.854501 32.780757 32.713686 32.652893 32.598405 32.549756 32.507000 32.469601 32.437656 32.410566 32.388483 32.370749 32.357579 32.348255 32.343065 32.341234 32.343123 32.347898 32.355998 32.366529 32.380005 32.395474 32.413522 32.433139 32.454979 32.477981 32.502857 32.528503 32.555681 32.583256 32.612028 32.640842 32.670532 32.699935 32.729905 32.759291 32.788957 32.817776 32.846613 32.874380 32.901935 32.928242 32.954139 32.978656 33.002603 33.025082 33.046865 33.067138 33.086625 33.104596 33.121721 33.137359 33.152116 33.165439 33.177866 33.188931 33.199097 33.207983 33.215972 33.222765 33.228664 33.233448 33.237333 33.240174 33.242101 33.243043 33.243043 33.242101 33.240173 33.237332 33.233446 33.228662 33.222762 33.215967 33.207976 33.199089 33.188921 33.177853 33.165422 33.152094 33.137332 33.121687 33.104553 33.086570 33.067070 33.046780 33.024975 33.002471 32.978493 32.953938 32.927994 32.901632 32.874010 32.846161 32.817227 32.788294 32.758490 32.728942 32.698780 32.669152 32.639198 32.610075 32.580943 32.552952 32.525292 32.499091 32.473578 32.449847 32.427176 32.406615 32.387499 32.370827 32.355997 32.343952 32.334162 32.327510 32.323543 32.323082 32.325753 32.332320 32.342485 32.356954 32.375505 32.398788 32.426649 32.459682 32.497792 32.541517 32.590807 32.646141 32.707501 32.775298 32.849532 32.930542 33.018322 33.113131 33.214943 33.323929 33.440020 33.563293 33.693623 33.830986 33.975187 34.126096 34.283441 34.446988 34.616383 34.791290 34.971275 35.155910 35.344689 35.537103 35.732585 35.930563 36.130428 36.331562 36.533333
36.911111 36.692607 36.474795 36.258364 36.043983 35.832317 35.623986 35.419609 35.219739 35.024929 34.835644 34.652362 34.475446 34.305288 34.142142 33.986315 33.837943 33.697254 33.564267 33.439140 33.321777 33.212281 33.110448 33.016341 32.929657 32.850440 32.778295 32.713266 32.654873 32.603183 32.557638 32.518342 32.484664 32.456766 32.433944 32.416427 32.403444 32.395302 32.391159 32.391405 32.395128 32.402806 32.413453 32.427634 32.444294 32.464077 32.485860 32.510366 32.536406 32.564772 32.594220 32.625602 32.657628 32.691201 32.724998 32.759962 32.794756 32.830350 32.865408 32.900919 32.935566 32.970344 33.003976 33.037450 33.069543 33.101228 33.131351 33.160857 33.188674 33.215709 33.240980 33.265347 33.287924 33.309511 33.329326 33.348101 33.365153 33.381141 33.395484 33.408757 33.420477 33.431131 33.440332 33.448476 33.455264 33.460997 33.465465 33.468869 33.471085 33.472213 33.472213 33.471084 33.468868 33.465463 33.460995 33.455261 33.448472 33.440327 33.431125 33.420468 33.408746 33.395470 33.381123 33.365130 33.348071 33.329289 33.309464 33.287865 33.265273 33.240888 33.215594 33.188531 33.160680 33.131133 33.100960 33.069214 33.037048 33.003487 32.969750 32.934847 32.900051 32.864365 32.829099 32.793261 32.758181 32.722883 32.688696 32.654672 32.622123 32.590140 32.560002 32.530846 32.503906 32.478378 32.455438 32.434350 32.416225 32.400403 32.387926 32.378215 32.372240 32.369511 32.370926 32.376081 32.385808 32.399787 32.418783 32.442558 32.471811 32.506377 32.546889 32.593244 32.646007 32.705120 32.771079 32.843854 32.923863 33.011087 33.105858 33.208146 33.318190 33.435929 33.561501 33.694794 33.835839 33.984457 34.140564 34.303906 34.474282 34.651351 34.834802 35.024206 35.219146 35.419110 35.623587 35.831992 36.043738 36.258182 36.474679 36.692549 36.911111
37.288889 37.053611 36.819081 36.586036 36.355210 36.127301 35.903005 35.682957 35.467792 35.258062 35.054327 34.857033 34.666655 34.483526 34.308029 34.140371 33.980850 33.829545 33.686674 33.552192 33.426249 33.308680 33.199586 33.098687 33.006056 32.921310 32.844512 32.775182 32.713401 32.658595 32.610883 32.569604 32.534934 32.506130 32.483438 32.466033 32.454245 32.447167 32.445222 32.447418 32.454274 32.464716 32.479357 32.497039 32.518469 32.542405 32.569643 32.598863 32.630939 32.664483 32.700437 32.737353 32.776235 32.815589 32.856468 32.897348 32.939322 32.980856 33.023067 33.064436 33.106092 33.146548 33.186936 33.225821 33.264324 33.301082 33.337190 33.371374 33.404693 33.435972 33.466221 33.494374 33.521381 33.546289 33.569977 33.591610 33.611985 33.630384 33.647513 33.662768 33.676758 33.688990 33.699970 33.709310 33.717408 33.723978 33.729307 33.733206 33.735849 33.737141 33.737141 33.735848 33.733205 33.729305 33.723976 33.717405 33.709306 33.699964 33.688983 33.676749 33.662756 33.647497 33.630364 33.611960 33.591579 33.569937 33.546238 33.521317 33.494294 33.466122 33.435848 33.404539 33.371184 33.336955 33.300793 33.263970 33.225389 33.186409 33.145909 33.105318 33.063502 33.021944 32.979509 32.937712 32.895430 32.854190 32.812891 32.773051 32.733607 32.696043 32.659346 32.624952 32.591906 32.561585 32.533102 32.507760 32.484752 32.465303 32.448692 32.436060 32.426779 32.421908 32.420916 32.424777 32.433058 32.446654 32.465225 32.489589 32.519494 32.555679 32.597970 32.647031 32.702749 32.765710 32.835844 32.913654 32.999096 33.092582 33.194071 33.303877 33.421939 33.548464 33.683350 33.826690 33.978321 34.138215 34.306132 34.481922 34.665256 34.855860 35.053314 35.257224 35.467079 35.682378 35.902525 36.126925 36.354915 36.585825 36.818941 37.053543 37.288889
37.666667 37.414625 37.163383 36.913741 36.666471 36.422345 36.182080 35.946397 35.715932 35.491333 35.273135 35.061901 34.858047 34.662041 34.474171 34.294810 34.124112 33.962359 33.809569 33.665950 33.531384 33.406019 33.289612 33.182271 33.083632 32.993791 32.912270 32.839174 32.773921 32.716648 32.666674 32.624191 32.588422 32.559632 32.536950 32.520730 32.510005 32.505227 32.505336 32.510886 32.520719 32.535498 32.553963 32.576884 32.602903 32.632887 32.665385 32.701356 32.739260 32.780139 32.822376 32.867083 32.912580 32.960042 33.007742 33.056903 33.105778 33.155621 33.204687 33.254254 33.302601 33.351014 33.397823 33.444308 33.488871 33.532772 33.574507 33.615301 33.653759 33.691058 33.725923 33.759471 33.790555 33.820217 33.847443 33.873189 33.896575 33.918458 33.938092 33.956228 33.972244 33.986780 33.999337 34.010431 34.019684 34.027486 34.033571 34.038200 34.041216 34.042750 34.042750 34.041215 34.038199 34.033569 34.027484 34.019680 34.010427 33.999331 33.986772 33.972235 33.956215 33.938076 33.918437 33.896548 33.873155 33.847400 33.820162 33.790487 33.759386 33.725817 33.690925 33.653594 33.615097 33.574255 33.532462 33.488491 33.443844 33.397259 33.350329 33.301772 33.253253 33.203483 33.154178 33.104053 33.054848 33.005301 32.957151 32.909169 32.863069 32.817668 32.774635 32.732845 32.693903 32.656752 32.622919 32.591430 32.563720 32.538906 32.518328 32.501203 32.488772 32.480357 32.477101 32.478432 32.485399 32.497539 32.515806 32.539838 32.570501 32.607527 32.651693 32.702811 32.761568 32.827839 32.902221 32.984630 33.075567 33.174965 33.283224 33.400271 33.526393 33.661488 33.805722 33.958942 34.121186 34.292229 34.471978 34.660121 34.856429 35.060497 35.271965 35.490329 35.715108 35.945704 36.181526 36.421895 36.666130 36.913488 37.163221 37.414544 37.666667