# vtk DataFile Version 3.0
Steady-state temperature (Jacobi)
ASCII
DATASET STRUCTURED_POINTS
DIMENSIONS 181 181 1
ORIGIN 0.0 0.0 0.0
SPACING 0.05 0.05 1.0
POINT_DATA 32761
SCALARS Temperature float 1
LOOKUP_TABLE default
32.000000 32.000000 32.000000 32.000000 32.000000 32.000000 32.000000 32.000000
32.000000 32.000000 32.000000 32.000000 32.000000 32.000000 32.000000 32.000000
32.000000 32.000000 32.000000 32.000000 32.000000 32.000000 32.000000 32.000000
32.000000 32.000000 32.000000 32.000000 32.000000 32.000000 32.000000 32.000000
32.000000 32.000000 32.000000 32.000000 32.000000 32.000000 32.000000 32.000000
32.000000 32.000000 32.000000 32.000000 32.000000 32.000000 32.000000 32.000000
32.000000 32.000000 32.000000 32.000000 32.000000 32.000000 32.000000 32.000000
32.000000 32.000000 32.000000 32.000000 32.000000 32.000000 32.000000 32.000000
32.000000 32.000000 32.000000 32.000000 32.000000 32.000000 32.000000 32.000000
32.000000 32.000000 32.000000 32.000000 32.000000 32.000000 32.000000 32.000000
32.000000 32.000000 32.000000 32.000000 32.000000 32.000000 32.000000 32.000000
32.000000 32.000000 32.000000 32.000000 32.000000 32.000000 32.000000 32.000000
32.000000 32.000000 32.000000 32.000000 32.000000 32.000000 32.000000 32.000000
32.000000 32.000000 32.000000 32.000000 32.000000 32.000000 32.000000 32.000000
32.000000 32.000000 32.000000 32.000000 32.000000 32.000000 32.000000 32.000000
32.000000 32.000000 32.000000 32.000000 32.000000 32.000000 32.000000 32.000000
32.000000 32.000000 32.000000 32.000000 32.000000 32.000000 32.000000 32.000000
32.000000 32.000000 32.000000 32.000000 32.000000 32.000000 32.000000 32.000000
32.000000 32.000000 32.000000 32.000000 32.000000 32.000000 32.000000 32.000000
32.000000 32.000000 32.000000 32.000000 32.000000 32.000000 32.000000 32.000000
32.000000 32.000000 32.000000 32.000000 32.000000 32.000000 32.000000 32.000000
32.000000 32.000000 32.000000 32.000000 32.000000 32.000000 32.000000 32.000000
32.000000 32.000000 32.000000 32.000000 32.000000
32.377778 32.398837 32.419912 32.441018 32.462169 32.483382 32.504670 32.526050
32.547531 32.569134 32.590863 32.612741 32.634769 32.656969 32.679341 32.701905
32.724658 32.747621 32.770787 32.794177 32.817779 32.841614 32.865667 32.889957
32.914466 32.939211 32.964170 32.989360 33.014755 33.040369 33.066173 33.092179
33.118354 33.144709 33.171206 33.197856 33.224617 33.251496 33.278450 33.305484
33.332552 33.359656 33.386747 33.413828 33.440847 33.467803 33.494644 33.521369
33.547924 33.574306 33.600461 33.626384 33.652024 33.677373 33.702380 33.727039
33.751299 33.775153 33.798553 33.821493 33.843926 33.865846 33.887208 33.908008
33.928205 33.947794 33.966737 33.985032 34.002642 34.019566 34.035772 34.051259
34.065998 34.079990 34.093209 34.105656 34.117309 34.128170 34.138220 34.147460
34.155874 34.163466 34.170222 34.176144 34.181222 34.185458 34.188845 34.191384
34.193072 34.193908 34.193891 34.193022 34.191302 34.188730 34.185311 34.181043
34.175933 34.169979 34.163193 34.155571 34.147126 34.137857 34.127779 34.116891
34.105212 34.092740 34.079497 34.065482 34.050722 34.035216 34.018993 34.002053
33.984430 33.966125 33.947173 33.927579 33.907380 33.886580 33.865222 33.843310
33.820890 33.797966 33.774587 33.750758 33.726529 33.701907 33.676942 33.651641
33.626057 33.600196 33.574110 33.547805 33.521335 33.494704 33.467965 33.441121
33.414223 33.387275 33.360325 33.333374 33.306472 33.279614 33.252849 33.226172
33.199626 33.173205 33.146950 33.120852 33.094950 33.069231 33.043731 33.018437
32.993378 32.968541 32.943952 32.919594 32.895492 32.871626 32.848016 32.824643
32.801522 32.778632 32.755986 32.733562 32.711368 32.689383 32.667611 32.646029
32.624641 32.603421 32.582371 32.561466 32.540703 32.520060 32.499529 32.479090
32.458733 32.438437 32.418191 32.397976 32.377778
32.755556 32.797686 32.839848 32.882070 32.924387 32.966823 33.009415 33.052182
33.095164 33.138375 33.181856 33.225616 33.269697 33.314100 33.358870 33.404001
33.449536 33.495465 33.541829 33.588610 33.635849 33.683521 33.731664 33.780246
33.829303 33.878796 33.928758 33.979140 34.029975 34.081206 34.132861 34.184877
34.237277 34.289991 34.343038 34.396343 34.449919 34.503683 34.557648 34.611722
34.665915 34.720130 34.774372 34.828541 34.882637 34.936559 34.990301 35.043760
35.096929 35.149702 35.202069 35.253926 35.305261 35.355969 35.406038 35.455365
35.503937 35.551654 35.598504 35.644391 35.689303 35.733149 35.775918 35.817523
35.857958 35.897140 35.935063 35.971654 36.006908 36.040757 36.073198 36.104172
36.133678 36.161660 36.188122 36.213015 36.236341 36.258060 36.278176 36.296654
36.313497 36.328678 36.342200 36.354042 36.364206 36.372676 36.379456 36.384533
36.387911 36.389583 36.389550 36.387812 36.384369 36.379227 36.372382 36.363848
36.353620 36.341716 36.328131 36.312890 36.295987 36.277451 36.257279 36.235506
36.212127 36.187184 36.160675 36.132647 36.103100 36.072088 36.039611 36.005732
35.970452 35.933839 35.895899 35.856706 35.816267 35.774663 35.731903 35.688073
35.643185 35.597331 35.550522 35.502857 35.454346 35.405093 35.355109 35.304498
35.253273 35.201541 35.149311 35.096693 35.043694 34.990422 34.936885 34.883187
34.829334 34.775428 34.721471 34.667562 34.613699 34.559978 34.506392 34.453031
34.399884 34.347038 34.294476 34.242276 34.190421 34.138981 34.087932 34.037341
33.987178 33.937502 33.888281 33.839565 33.791319 33.743586 33.696329 33.649581
33.603304 33.557524 33.512199 33.467350 33.422932 33.378960 33.335388 33.292223
33.249420 33.206979 33.164855 33.123042 33.081495 33.040204 32.999124 32.958239
32.917509 32.876909 32.836403 32.795964 32.755556
33.133333 33.196559 33.259831 33.323197 33.386698 33.450388 33.514299 33.578490
33.642985 33.707845 33.773088 33.838776 33.904917 33.971576 34.038750 34.106504
34.174827 34.243783 34.313349 34.383588 34.454467 34.526048 34.598285 34.671236
34.744846 34.819168 34.894137 34.969800 35.046080 35.123021 35.200534 35.278657
35.357290 35.436465 35.516073 35.596138 35.676541 35.757300 35.838288 35.919517
36.000849 36.082291 36.163699 36.245074 36.326266 36.407270 36.487931 36.568242
36.648044 36.727324 36.805924 36.883829 36.960878 37.037056 37.112205 37.186307
37.259209 37.330892 37.401207 37.470139 37.537544 37.603406 37.667592 37.730088
37.790768 37.849621 37.906531 37.961489 38.014390 38.065227 38.113906 38.160423
38.204693 38.246717 38.286418 38.323799 38.358794 38.391409 38.421586 38.449331
38.474599 38.497393 38.517678 38.535457 38.550704 38.563422 38.573591 38.581214
38.586281 38.588791 38.588742 38.586133 38.580969 38.573248 38.562981 38.550167
38.534826 38.516952 38.496575 38.473689 38.448333 38.420501 38.390239 38.357544
38.322469 38.285013 38.245241 38.203150 38.158818 38.112243 38.063512 38.012628
37.959689 37.904698 37.847764 37.788894 37.728207 37.665714 37.601541 37.535702
37.468334 37.399451 37.329198 37.257593 37.184784 37.110792 37.035770 36.959738
36.882853 36.805135 36.726743 36.647694 36.568148 36.488118 36.407764 36.327095
36.246268 36.165288 36.084307 36.003324 35.922487 35.841788 35.761368 35.681214
35.601456 35.522077 35.443199 35.364795 35.286979 35.209719 35.133117 35.057135
34.981864 34.907260 34.833404 34.760246 34.687855 34.616177 34.545270 34.475075
34.405639 34.336901 34.268895 34.201558 34.134914 34.068897 34.003522 33.938721
33.874499 33.810788 33.747584 33.684819 33.622480 33.560502 33.498862 33.437498
33.376379 33.315447 33.254663 33.193973 33.133333
33.511111 33.595467 33.679887 33.764426 33.849157 33.934125 34.019408 34.105042
34.191109 34.277635 34.364705 34.452334 34.540609 34.629532 34.719191 34.809577
34.900775 34.992764 35.085628 35.179331 35.273955 35.369449 35.465892 35.563218
35.661500 35.760659 35.860761 35.961712 36.063573 36.166233 36.269747 36.373988
36.479004 36.584654 36.690977 36.797820 36.905211 37.012985 37.121163 37.229567
37.338209 37.446902 37.555650 37.664257 37.772720 37.880835 37.988592 38.095783
38.202394 38.308211 38.413217 38.517198 38.620132 38.721808 38.822202 38.921106
39.018495 39.114168 39.208100 39.300097 39.390136 39.478034 39.563770 39.647170
39.728218 39.806752 39.882760 39.956092 40.026740 40.094570 40.159575 40.221636
40.280750 40.336811 40.389821 40.439685 40.486409 40.529912 40.570200 40.607207
40.640938 40.671339 40.698417 40.722129 40.742482 40.759442 40.773017 40.783183
40.789946 40.793294 40.793228 40.789749 40.782856 40.772560 40.758857 40.741768
40.721289 40.697452 40.670250 40.639728 40.605879 40.568757 40.528356 40.484745
40.437917 40.387952 40.334848 40.278698 40.219500 40.157363 40.092288 40.024398
39.953697 39.880322 39.804281 39.725726 39.644668 39.561272 39.475553 39.387688
39.297696 39.205765 39.111917 39.016348 38.919082 38.820325 38.720100 38.618619
38.515905 38.412173 38.307444 38.201935 38.095665 37.988849 37.881501 37.773834
37.665858 37.557778 37.449599 37.341520 37.233536 37.125840 37.018418 36.911452
36.804921 36.698994 36.593642 36.489022 36.385096 36.282006 36.179706 36.078326
35.977810 35.878273 35.779653 35.682049 35.585391 35.489765 35.395095 35.301450
35.208751 35.117051 35.026267 34.936439 34.847479 34.759413 34.672152 34.585708
34.499992 34.415003 34.330651 34.246923 34.163731 34.081050 33.998796 33.916933
33.835379 33.754089 33.672987 33.592017 33.511111
33.888889 33.994423 34.100033 34.205803 34.311798 34.418109 34.524792 34.631944
34.739606 34.847881 34.956797 35.066459 35.176882 35.288172 35.400328 35.513456
35.627540 35.742684 35.858854 35.976154 36.094529 36.214080 36.334736 36.456590
36.579553 36.703712 36.828958 36.955371 37.082824 37.211388 37.340916 37.471470
37.602886 37.735214 37.868273 38.002104 38.136508 38.271515 38.406910 38.542714
38.678698 38.814872 38.950995 39.087067 39.222837 39.358297 39.493188 39.627495
39.760953 39.893541 40.024992 40.155279 40.284136 40.411534 40.537209 40.661130
40.783041 40.902910 41.020489 41.135747 41.248448 41.358564 41.465871 41.570345
41.671777 41.770149 41.865265 41.957113 42.045516 42.130464 42.211798 42.289514
42.363471 42.433668 42.499980 42.562413 42.620858 42.675321 42.725711 42.772037
42.814224 42.852279 42.886142 42.915823 42.941274 42.962502 42.979477 42.992201
43.000658 43.004848 43.004767 43.000413 42.991794 42.978907 42.961772 42.940384
42.914775 42.884939 42.850922 42.812716 42.770382 42.723912 42.673382 42.618783
42.560209 42.497652 42.431221 42.360912 42.286852 42.209040 42.127620 42.042596
41.954129 41.862227 41.767070 41.668672 41.567228 41.462758 41.355473 41.245398
41.132758 41.017581 40.900108 40.780368 40.658613 40.534874 40.409411 40.282256
40.153675 40.023698 39.892595 39.760393 39.627361 39.493522 39.359144 39.224243
39.089081 38.953668 38.818257 38.682850 38.547691 38.412771 38.278322 38.144324
38.010997 37.878310 37.746467 37.615425 37.485373 37.356258 37.228250 37.101285
36.975516 36.850869 36.727478 36.605261 36.484333 36.364602 36.246166 36.128926
36.012959 35.898164 35.784598 35.672153 35.560872 35.450643 35.341489 35.233298
35.126078 35.019716 34.914202 34.809425 34.705362 34.601904 34.499012 34.396583
34.294565 34.192860 34.091403 33.990104 33.888889
34.266667 34.393436 34.520301 34.647348 34.774682 34.902377 35.030546 35.159247
35.288601 35.418651 35.549521 35.681238 35.813930 35.947603 36.082388 36.218273
36.355387 36.493698 36.633332 36.774237 36.916536 37.060153 37.205206 37.351598
37.499438 37.648608 37.799209 37.951098 38.104367 38.258850 38.414629 38.571515
38.729578 38.888609 39.048663 39.209511 39.371195 39.533468 39.696358 39.859599
40.023209 40.186904 40.350691 40.514273 40.677643 40.840496 41.002816 41.164287
41.324886 41.484294 41.642479 41.799122 41.954185 42.107353 42.258584 42.407569
42.554265 42.698371 42.839848 42.978403 43.114002 43.246366 43.375465 43.501038
43.623058 43.741284 43.855695 43.966070 44.072394 44.174465 44.272277 44.365649
44.454579 44.538906 44.618636 44.693628 44.763890 44.829303 44.889876 44.945511
44.996218 45.041916 45.082616 45.118254 45.148842 45.174331 45.194730 45.210008
45.220171 45.225202 45.225104 45.219878 45.209521 45.194049 45.173458 45.147778
45.117002 45.081177 45.040293 44.994415 44.943532 44.887725 44.826984 44.761410
44.690992 44.615851 44.535980 44.451519 44.362466 44.268981 44.171065 44.068903
43.962501 43.852063 43.737603 43.619346 43.497312 43.371745 43.242673 43.110358
42.974832 42.836375 42.695025 42.551074 42.404564 42.255800 42.104822 41.951948
41.797215 41.640946 41.483177 41.324232 41.164144 41.003235 40.841531 40.679350
40.516709 40.353919 40.190987 40.028213 39.865592 39.703413 39.541657 39.380598
39.220205 39.060732 38.902136 38.744652 38.588225 38.433068 38.279111 38.126550
37.975301 37.825535 37.677160 37.530325 37.384924 37.241085 37.098694 36.957855
36.818447 36.680551 36.544041 36.408976 36.275224 36.142824 36.011642 35.881694
35.752846 35.625096 35.498309 35.372465 35.247431 35.123169 34.999552 34.876524
34.753965 34.631803 34.509926 34.388249 34.266667
34.644444 34.792520 34.940702 35.089109 35.237835 35.387008 35.536706 35.687065
35.838146 35.990093 36.142946 36.296853 36.451835 36.608043 36.765475 36.924282
37.084440 37.246099 37.409209 37.573917 37.740148 37.908045 38.077505 38.248664
38.421394 38.595820 38.771789 38.949413 39.128515 39.309193 39.491244 39.674752
39.859489 40.045525 40.232605 40.420785 40.609788 40.799653 40.990081 41.181096
41.372379 41.563941 41.755443 41.946884 42.137912 42.328510 42.518317 42.707306
42.895107 43.081684 43.266665 43.450007 43.631337 43.810609 43.987455 44.161825
44.333361 44.502014 44.667435 44.829581 44.988118 45.143006 45.293929 45.440855
45.583488 45.721802 45.855525 45.984637 46.108891 46.228276 46.342568 46.451762
46.555661 46.654265 46.747403 46.835080 46.917147 46.993615 47.064358 47.129388
47.188601 47.242011 47.289534 47.331184 47.366896 47.396683 47.420499 47.438353
47.450217 47.456097 47.455984 47.449877 47.437787 47.419708 47.395669 47.365660
47.329728 47.287862 47.240126 47.186506 47.127088 47.061858 46.990922 46.914266
46.832018 46.744168 46.650866 46.552107 46.448064 46.338738 46.224327 46.104836
45.980492 45.851306 45.717527 45.579177 45.436528 45.289610 45.138718 44.983888
44.825437 44.663406 44.498132 44.329661 44.158344 43.984229 43.807682 43.628750
43.447807 43.264900 43.080407 42.894369 42.707165 42.518832 42.329745 42.139930
41.949755 41.759237 41.568732 41.378245 41.188118 40.998341 40.809239 40.620789
40.433295 40.246718 40.061341 39.877109 39.694284 39.512792 39.332872 39.154435
38.977693 38.802545 38.629178 38.457474 38.287596 38.119415 37.953065 37.788410
37.625556 37.464359 37.304901 37.147029 36.990800 36.836060 36.682838 36.530978
36.380488 36.231211 36.083131 35.936093 35.790062 35.644885 35.500507 35.356783
35.213639 35.070936 34.928585 34.786456 34.644444
35.022222 35.191681 35.361269 35.531102 35.701323 35.872028 36.043373 36.215435
36.388376 36.562255 36.737239 36.913365 37.090805 37.269569 37.449831 37.631578
37.814982 38.000002 38.186808 38.375330 38.565733 38.757919 38.952044 39.147981
39.345877 39.545572 39.747203 39.950581 40.155826 40.362722 40.571373 40.781532
40.993287 41.206362 41.420829 41.636383 41.853077 42.070582 42.288934 42.507777
42.727130 42.946618 43.166242 43.385607 43.604701 43.823114 44.040820 44.257398
44.472810 44.686631 44.898813 45.108927 45.316920 45.522367 45.725211 45.925034
46.121778 46.315037 46.504756 46.690545 46.872351 47.049805 47.222863 47.391175
47.554705 47.713131 47.866425 48.014290 48.156708 48.293412 48.424390 48.549405
48.668455 48.781328 48.888031 48.988380 49.082385 49.169892 49.250915 49.325323
49.393132 49.454237 49.508653 49.556299 49.597189 49.631262 49.658529 49.678950
49.692534 49.699260 49.699131 49.692147 49.678307 49.657629 49.630108 49.595783
49.554644 49.506752 49.452093 49.390750 49.322707 49.248072 49.166829 49.079108
48.984897 48.884352 48.777462 48.664413 48.545200 48.420035 48.288920 48.152098
48.009577 47.861628 47.708271 47.549805 47.386257 47.217954 47.044933 46.867545
46.685836 46.500181 46.310631 46.117580 45.921085 45.721556 45.519052 45.313996
45.106444 44.896829 44.685203 44.472001 44.257271 44.041444 43.824559 43.607043
43.388923 43.170614 42.952130 42.733873 42.515840 42.298414 42.081577 41.865692
41.650720 41.437002 41.224482 41.013472 40.803900 40.596051 40.389833 40.185503
39.982954 39.782412 39.583754 39.387175 39.192539 39.000011 38.809441 38.620965
38.434423 38.249921 38.067289 37.886605 37.707693 37.530603 37.355154 37.181369
37.009066 36.838241 36.668715 36.500457 36.333291 36.167164 36.001905 35.837440
35.673605 35.510306 35.347389 35.184741 35.022222
35.400000 35.590936 35.782010 35.973377 36.165159 36.357522 36.550568 36.744475
36.939321 37.135292 37.332444 37.530968 37.730891 37.932410 38.135525 38.340430
38.547096 38.755717 38.966231 39.178828 39.393415 39.610172 39.828975 40.049993
40.273067 40.498356 40.725666 40.955141 41.186554 41.420031 41.655311 41.892503
42.131313 42.371829 42.613726 42.857072 43.101510 43.347090 43.593424 43.840542
44.088032 44.335903 44.583721 44.831476 45.078715 45.325413 45.571100 45.815737
46.058847 46.300377 46.539845 46.777190 47.011931 47.244000 47.472923 47.698630
47.920656 48.138935 48.353017 48.562838 48.767971 48.968358 49.163594 49.353631
49.538093 49.716941 49.889828 50.056726 50.217320 50.371592 50.519260 50.660316
50.794510 50.921843 51.042097 51.155282 51.261208 51.359892 51.451174 51.535073
51.611457 51.680347 51.741638 51.795348 51.841399 51.879805 51.910512 51.933530
51.948827 51.956408 51.956264 51.948394 51.932810 51.909506 51.878515 51.839826
51.793497 51.739511 51.677949 51.608792 51.532147 51.447994 51.356465 51.257542
51.151386 51.037981 50.917518 50.789988 50.655612 50.514387 50.366569 50.212162
50.051455 49.884463 49.711507 49.532613 49.348133 49.158106 48.962912 48.762600
48.557579 48.347907 48.134016 47.915971 47.694227 47.468850 47.240312 47.008681
46.774439 46.537654 46.298813 46.057978 45.815638 45.571845 45.327083 45.081394
44.835253 44.588685 44.342153 44.095664 43.849662 43.604138 43.359511 43.115752
42.873257 42.631975 42.392272 42.154078 41.917729 41.683134 41.450597 41.220006
40.991633 40.765347 40.541387 40.319605 40.100203 39.883021 39.668226 39.455644
39.245409 39.037336 38.831526 38.627785 38.426183 38.226519 38.028831 37.832916
37.638783 37.446228 37.255230 37.065587 36.877252 36.690029 36.503845 36.318510
36.133929 35.949922 35.766371 35.583109 35.400000
35.777778 35.990286 36.202959 36.415941 36.629414 36.843501 37.058398 37.274203
37.491122 37.709229 37.928737 38.149692 38.372311 38.596611 38.822810 39.050892
39.281077 39.513314 39.747816 39.984501 40.223574 40.464916 40.708721 40.954834
41.203438 41.454338 41.707701 41.963296 42.221272 42.481359 42.743688 43.007950
43.274254 43.542256 43.812044 44.083236 44.355897 44.629613 44.904426 45.179891
45.456027 45.732362 46.008893 46.285126 46.561036 46.836111 47.110309 47.383104
47.654438 47.923777 48.191052 48.455727 48.717725 48.976512 49.232009 49.483689
49.731474 49.974854 50.213751 50.447676 50.676560 50.899938 51.117748 51.329557
51.535314 51.734617 51.927427 52.113378 52.292443 52.464292 52.628911 52.786005
52.935572 53.077354 53.211357 53.337359 53.455373 53.565210 53.666891 53.760255
53.845327 53.921978 53.990230 54.049984 54.101260 54.143983 54.178171 54.203776
54.220807 54.229241 54.229081 54.220329 54.202981 54.177060 54.142558 54.099523
54.047939 53.987882 53.919330 53.842385 53.757025 53.663379 53.561426 53.451325
53.333056 53.206812 53.072578 52.930580 52.780811 52.623532 52.458745 52.286750
52.107558 51.921506 51.728618 51.529267 51.323490 51.111694 50.893931 50.670638
50.441878 50.208120 49.969435 49.726317 49.478845 49.227533 48.972463 48.714165
48.452720 48.188670 47.922090 47.653526 47.383045 47.111191 46.838021 46.564069
46.289377 46.014467 45.739362 45.464567 45.190083 44.916392 44.643476 44.371787
44.101283 43.832389 43.565038 43.299622 43.036051 42.774680 42.515399 42.258525
42.003926 41.751882 41.502241 41.255245 41.010723 40.768880 40.529529 40.292836
40.058600 39.826952 39.597679 39.370875 39.146321 38.924073 38.703908 38.485849
38.269670 38.055361 37.842697 37.631638 37.421962 37.213600 37.006338 36.800079
36.594617 36.389834 36.185533 35.981575 35.777778
36.155556 36.389750 36.624117 36.858847 37.094090 37.330055 37.566866 37.804745
38.043788 38.284228 38.526133 38.769739 39.015084 39.262408 39.511715 39.763245
40.016965 40.273113 40.531618 40.792712 41.056284 41.322556 41.591379 41.862961
42.137110 42.414020 42.693458 42.975598 43.260166 43.547314 43.836727 44.128534
44.422379 44.718366 45.016099 45.315659 45.616608 45.919002 46.222369 46.526739
46.831607 47.136978 47.442319 47.747610 48.052295 48.356335 48.659153 48.960692
49.260364 49.558095 49.853292 50.145871 50.435238 50.721303 51.003480 51.281674
51.555316 51.824312 52.088112 52.346629 52.599338 52.846163 53.086608 53.320609
53.547706 53.767847 53.980610 54.185959 54.383511 54.573244 54.754816 54.928219
55.093150 55.249613 55.397347 55.536365 55.666442 55.787600 55.899650 56.002618
56.096348 56.180868 56.256055 56.321934 56.378413 56.425511 56.463165 56.491389
56.510147 56.519444 56.519270 56.509625 56.490521 56.461951 56.423954 56.376516
56.319701 56.253489 56.177975 56.093134 55.999089 55.895814 55.783466 55.662020
55.531665 55.392382 55.244397 55.087696 54.922546 54.748941 54.567187 54.377293
54.179605 53.974144 53.761298 53.541103 53.313987 53.080000 52.839609 52.592877
52.340306 52.081973 51.818409 51.549700 51.276405 50.998615 50.716909 50.431382
50.142626 49.850733 49.556303 49.259423 48.960693 48.660187 48.358502 48.055697
47.752355 47.448517 47.144749 46.841071 46.538024 46.235605 45.934328 45.634162
45.335591 45.038559 44.743512 44.450368 44.159536 43.870909 43.584855 43.301241
43.020396 42.742162 42.466827 42.194212 41.924562 41.657679 41.393766 41.132609
40.874369 40.618819 40.366079 40.115912 39.868398 39.623292 39.380637 39.140184
38.901938 38.665651 38.431292 38.198615 37.967558 37.737879 37.509486 37.282146
37.055739 36.830043 36.604912 36.380139 36.155556
36.533333 36.789327 37.045520 37.302092 37.559261 37.817180 38.076083 38.336096
38.597466 38.860287 39.124814 39.391109 39.659433 39.929810 40.202504 40.477502
40.755065 41.035140 41.317982 41.603498 41.891933 42.183150 42.477382 42.774448
43.074565 43.377505 43.683469 43.992181 44.303819 44.618063 44.935068 45.254465
45.576384 45.900412 46.226651 46.554644 46.884464 47.215616 47.548142 47.881508
48.215729 48.550238 48.885022 49.219485 49.553589 49.886714 50.218799 50.549210
50.877864 51.204117 51.527874 51.848486 52.165848 52.479314 52.788777 53.093603
53.393683 53.688402 53.977657 54.260858 54.537912 54.808260 55.071821 55.328073
55.576951 55.817972 56.051088 56.275860 56.492256 56.699882 56.898721 57.088426
57.268995 57.440123 57.601822 57.753830 57.896168 58.028615 58.151198 58.263734
58.366255 58.458611 58.540835 58.612811 58.674566 58.726017 58.767185 58.798016
58.818523 58.828681 58.828492 58.817959 58.797076 58.765871 58.724331 58.672512
58.610392 58.538057 58.455479 58.362775 58.259914 58.147045 58.024139 57.891380
57.748742 57.596447 57.434476 57.263092 57.082285 56.892362 56.693325 56.485527
56.268983 56.044092 55.810886 55.569809 55.320910 55.064676 54.801173 54.530929
54.254026 53.971028 53.682029 53.387626 53.087923 52.783542 52.474591 52.161714
51.845017 51.525157 51.202236 50.876914 50.549285 50.220005 49.889155 49.557379
49.224740 48.891867 48.558797 48.226138 47.893903 47.562670 47.232423 46.903708
46.576481 46.251250 45.927941 45.607021 45.288389 44.972467 44.659127 44.348747
44.041169 43.736728 43.435242 43.136997 42.841790 42.549861 42.260987 41.975363
41.692748 41.413294 41.136745 40.863210 40.592423 40.324449 40.059019 39.796156
39.535586 39.277295 39.021009 38.766679 38.514034 38.262990 38.013285 37.764801
37.517289 37.270602 37.024503 36.778819 36.533333
36.911111 37.189035 37.467165 37.745732 38.024917 38.304967 38.586036 38.868387
39.152141 39.437572 39.724767 40.014008 40.305343 40.599059 40.895165 41.193946
41.495370 41.799718 42.106913 42.417227 42.730539 43.047108 43.366765 43.689755
44.015858 44.345301 44.677814 45.013602 45.352344 45.694220 46.038858 46.386412
46.736459 47.089123 47.443934 47.800984 48.159757 48.520312 48.882091 49.245121
49.608804 49.973136 50.337485 50.701816 51.065470 51.428385 51.789878 52.149866
52.507649 52.863125 53.215588 53.564923 53.910423 54.251965 54.588852 54.920958
55.247603 55.568664 55.883487 56.191957 56.493451 56.787868 57.074621 57.353627
57.624342 57.886701 58.140206 58.384810 58.620067 58.845948 59.062056 59.268380
59.464572 59.650637 59.826275 59.991504 60.146068 60.289996 60.423074 60.545336
60.656607 60.756924 60.846148 60.924313 60.991316 61.047184 61.091846 61.125322
61.147569 61.158598 61.158396 61.146962 61.124312 61.090435 61.045374 60.989110
60.921716 60.843164 60.753559 60.652869 60.541232 60.418613 60.285189 60.140925
59.986039 59.820501 59.644571 59.458231 59.261784 59.055225 58.838907 58.612840
58.377426 58.132693 57.879093 57.616675 57.345940 57.066954 56.780266 56.485962
56.184634 55.876384 55.561841 55.241122 54.914888 54.583262 54.246934 53.906028
53.561252 53.212730 52.861176 52.506706 52.150038 51.791274 51.431122 51.069668
50.707604 50.344993 49.982506 49.620177 49.258650 48.897930 48.538625 48.180709
47.824751 47.470693 47.119062 46.769766 46.423286 46.079499 45.738838 45.401149
45.066816 44.735656 44.408003 44.083649 43.762877 43.445455 43.131616 42.821109
42.514118 42.210374 41.910014 41.612756 41.318691 41.027527 40.739310 40.453744
40.170830 39.890271 39.612030 39.335810 39.061535 38.788916 38.517841 38.248030
37.979339 37.711502 37.444342 37.177613 36.911111
37.288889 37.588869 37.889087 38.189755 38.491131 38.793399 39.096836 39.401593
39.707961 40.016055 40.326177 40.638402 40.953040 41.270123 41.589963 41.912548
42.238187 42.566823 42.898757 43.233883 43.572492 43.914428 44.259964 44.608894
44.961474 45.317441 45.677028 46.039921 46.406326 46.775873 47.148739 47.524501
47.903303 48.284668 48.668709 49.054897 49.443307 49.833364 50.225106 50.617913
51.011790 51.406074 51.800736 52.195078 52.589042 52.981900 53.373566 53.763292
54.150967 54.535831 54.917757 55.295979 55.670359 56.040135 56.405164 56.764699
57.118598 57.466137 57.807181 58.141037 58.467583 58.786165 59.096678 59.398512
59.691582 59.975329 60.249689 60.514156 60.768688 61.012833 61.246572 61.469506
61.681634 61.882613 62.072456 62.250871 62.417885 62.573252 62.717008 62.848950
62.969118 63.077351 63.173689 63.258006 63.330338 63.390595 63.438803 63.474905
63.498918 63.510814 63.510598 63.498271 63.473827 63.437297 63.388663 63.327984
63.255234 63.170505 63.073761 62.965129 62.844570 62.712247 62.568121 62.412397
62.245039 62.066296 61.876140 61.674869 61.462468 61.239285 61.005321 60.760979
60.506278 60.241676 59.967216 59.683407 59.390316 59.088507 58.778065 58.459608
58.133240 57.799623 57.458881 57.111713 56.758255 56.399241 56.034812 55.665725
55.292124 54.914780 54.533832 54.150055 53.763579 53.375174 52.984951 52.593670
52.201418 51.808932 51.416274 51.024153 50.632597 50.242282 49.853203 49.465994
49.080615 48.697656 48.317040 47.939309 47.564349 47.192652 46.824070 46.459042
46.097387 45.739489 45.385138 45.034663 44.687828 44.344908 44.005641 43.670250
43.338453 43.010420 42.685853 42.364872 42.047166 41.732805 41.421471 41.113188
40.807632 40.504782 40.204317 39.906171 39.610028 39.315784 39.023129 38.731924
38.441872 38.152797 37.864421 37.576538 37.288889
37.666667 37.988850 38.311277 38.634216 38.957883 39.282568 39.608452 39.935843
40.264887 40.595903 40.928998 41.264500 41.602472 41.943248 42.286844 42.633593
42.983463 43.336781 43.693466 44.053835 44.417751 44.785520 45.156949 45.532324
45.911397 46.294430 46.681118 47.071696 47.465799 47.863634 48.264777 48.669399
49.077020 49.487774 49.901126 50.317171 50.735318 51.155624 51.577448 52.000807
52.425012 52.850044 53.275170 53.700336 54.124775 54.548399 54.970413 55.390703
55.808453 56.223527 56.635100 57.043018 57.446458 57.845257 58.238601 58.626326
59.007639 59.382380 59.749787 60.109712 60.461430 60.804812 61.139179 61.464423
61.779918 62.085580 62.380840 62.665639 62.939466 63.202290 63.453657 63.693559
63.921603 64.137800 64.341814 64.533672 64.713090 64.880107 65.034490 65.176283
65.305298 65.421582 65.524986 65.615555 65.693178 65.757892 65.809620 65.848389
65.874154 65.886929 65.886700 65.873467 65.847246 65.808022 65.755842 65.690680
65.612614 65.521608 65.417773 65.301066 65.171637 65.029439 64.874665 64.707268
64.527485 64.335278 64.130935 63.914426 63.686094 63.445927 63.194322 62.931290
62.657286 62.372344 62.076980 61.771253 61.455739 61.130522 60.796234 60.452986
60.101462 59.741794 59.374713 59.000369 58.619532 58.232364 57.839666 57.441604
57.039001 56.632022 56.221500 55.807591 55.391129 54.972253 54.551789 54.129854
53.707253 53.284075 52.861100 52.438384 52.016671 51.595982 51.177018 50.759762
50.344870 49.932284 49.522610 49.115749 48.712254 48.311987 47.915445 47.522453
47.133450 46.748226 46.367162 45.990017 45.617113 45.248181 44.883486 44.522735
44.166134 43.813373 43.464602 43.119493 42.778145 42.440219 42.105762 41.774427
41.446213 41.120771 40.798053 40.477714 40.159660 39.843553 39.529259 39.216453
38.904959 38.594470 38.284776 37.975588 37.666667
38.044444 38.388969 38.733770 39.079095 39.425247 39.772439 40.120995 40.471091
40.823067 41.177059 41.533416 41.892233 42.253865 42.618359 42.986073 43.357002
43.731501 44.109513 44.491385 44.877005 45.266705 45.660316 46.058152 46.459985
46.866107 47.276227 47.690610 48.108904 48.531342 48.957509 49.387603 49.821147
50.258300 50.698522 51.141934 51.587935 52.036602 52.487278 52.939997 53.394047
53.849422 54.305360 54.761813 55.217978 55.673769 56.128349 56.581597 57.032650
57.481361 57.926849 58.368946 58.806765 59.240125 59.668146 60.090639 60.506740
60.916265 61.318378 61.712903 62.099043 62.476639 62.844941 63.203813 63.552560
63.891071 64.218711 64.535400 64.840565 65.134156 65.415664 65.685067 65.941922
66.186230 66.417612 66.636090 66.841342 67.033407 67.212019 67.377226 67.528812