# vtk DataFile Version 3.0
Steady-state temperature (Jacobi)
ASCII
DATASET STRUCTURED_POINTS
DIMENSIONS 181 181 1
ORIGIN 0.0 0.0 0.0
SPACING 0.05 0.05 1.0
POINT_DATA 32761
SCALARS Temperature float 1
LOOKUP_TABLE default
32.000000 32.000000 32.000000 32.000000 32.000000 32.000000 32.000000 32.000000
32.000000 32.000000 32.000000 32.000000 32.000000 32.000000 32.000000 32.000000
32.000000 32.000000 32.000000 32.000000 32.000000 32.000000 32.000000 32.000000
32.000000 32.000000 32.000000 32.000000 32.000000 32.000000 32.000000 32.000000
32.000000 32.000000 32.000000 32.000000 32.000000 32.000000 32.000000 32.000000
32.000000 32.000000 32.000000 32.000000 32.000000 32.000000 32.000000 32.000000
32.000000 32.000000 32.000000 32.000000 32.000000 32.000000 32.000000 32.000000
32.000000 32.000000 32.000000 32.000000 32.000000 32.000000 32.000000 32.000000
32.000000 32.000000 32.000000 32.000000 32.000000 32.000000 32.000000 32.000000
32.000000 32.000000 32.000000 32.000000 32.000000 32.000000 32.000000 32.000000
32.000000 32.000000 32.000000 32.000000 32.000000 32.000000 32.000000 32.000000
32.000000 32.000000 32.000000 32.000000 32.000000 32.000000 32.000000 32.000000
32.000000 32.000000 32.000000 32.000000 32.000000 32.000000 32.000000 32.000000
32.000000 32.000000 32.000000 32.000000 32.000000 32.000000 32.000000 32.000000
32.000000 32.000000 32.000000 32.000000 32.000000 32.000000 32.000000 32.000000
32.000000 32.000000 32.000000 32.000000 32.000000 32.000000 32.000000 32.000000
32.000000 32.000000 32.000000 32.000000 32.000000 32.000000 32.000000 32.000000
32.000000 32.000000 32.000000 32.000000 32.000000 32.000000 32.000000 32.000000
32.000000 32.000000 32.000000 32.000000 32.000000 32.000000 32.000000 32.000000
32.000000 32.000000 32.000000 32.000000 32.000000 32.000000 32.000000 32.000000
32.000000 32.000000 32.000000 32.000000 32.000000 32.000000 32.000000 32.000000
32.000000 32.000000 32.000000 32.000000 32.000000 32.000000 32.000000 32.000000
32.000000 32.000000 32.000000 32.000000 32.000000
32.377778 32.409028 32.440282 32.471542 32.502813 32.534096 32.565395 32.596713
32.628052 32.659415 32.690804 32.722220 32.753665 32.785141 32.816646 32.848183
32.879750 32.911347 32.942972 32.974623 33.006298 33.037994 33.069705 33.101430
33.133161 33.164894 33.196620 33.228333 33.260024 33.291685 33.323305 33.354874
33.386379 33.417811 33.449153 33.480393 33.511516 33.542507 33.573349 33.604025
33.634518 33.664810 33.694880 33.724712 33.754283 33.783575 33.812566 33.841236
33.869562 33.897524 33.925100 33.952270 33.979010 34.005301 34.031119 34.056447
34.081261 34.105544 34.129274 34.152434 34.175003 34.196967 34.218305 34.239004
34.259046 34.278418 34.297105 34.315095 34.332376 34.348936 34.364764 34.379851
34.394189 34.407768 34.420582 34.432625 34.443889 34.454371 34.464065 34.472967
34.481073 34.488381 34.494888 34.500591 34.505489 34.509581 34.512864 34.515339
34.517004 34.517859 34.517904 34.517140 34.515565 34.513182 34.509991 34.505993
34.501190 34.495582 34.489173 34.481965 34.473961 34.465164 34.455578 34.445206
34.434055 34.422130 34.409436 34.395981 34.381772 34.366817 34.351126 34.334708
34.317575 34.299736 34.281206 34.261997 34.242123 34.221599 34.200441 34.178664
34.156288 34.133328 34.109805 34.085736 34.061143 34.036043 34.010461 33.984413
33.957925 33.931014 33.903705 33.876018 33.847976 33.819599 33.790909 33.761927
33.732675 33.703170 33.673437 33.643491 33.613353 33.583041 33.552574 33.521966
33.491237 33.460399 33.429470 33.398462 33.367389 33.336262 33.305094 33.273895
33.242676 33.211445 33.180211 33.148981 33.117762 33.086559 33.055379 33.024224
32.993101 32.962010 32.930955 32.899938 32.868960 32.838020 32.807121 32.776261
32.745440 32.714655 32.683906 32.653190 32.622506 32.591850 32.561219 32.530611
32.500021 32.469447 32.438884 32.408329 32.377778
32.755556 32.818058 32.880567 32.943089 33.005631 33.068198 33.130799 33.193436
33.256117 33.318845 33.381626 33.444461 33.507355 33.570308 33.633325 33.696402
33.759541 33.822739 33.885995 33.949303 34.012661 34.076058 34.139491 34.202948
34.266420 34.329894 34.393358 34.456794 34.520190 34.583523 34.646777 34.709928
34.772955 34.835831 34.898533 34.961029 35.023294 35.085292 35.146996 35.208366
35.269373 35.329975 35.390139 35.449821 35.508987 35.567591 35.625596 35.682955
35.739632 35.795577 35.850753 35.905112 35.958616 36.011217 36.062877 36.113551
36.163202 36.211785 36.259266 36.305602 36.350761 36.394702 36.437397 36.478808
36.518908 36.557664 36.595053 36.631044 36.665617 36.698746 36.730413 36.760596
36.789279 36.816445 36.842080 36.866170 36.888705 36.909672 36.929063 36.946870
36.963086 36.977705 36.990721 37.002129 37.011927 37.020111 37.026678 37.031628
37.034959 37.036669 37.036759 37.035230 37.032081 37.027314 37.020931 37.012933
37.003325 36.992109 36.979288 36.964870 36.948858 36.931261 36.912084 36.891337
36.869029 36.845173 36.819779 36.792862 36.764435 36.734518 36.703125 36.670280
36.636000 36.600313 36.563238 36.524807 36.485044 36.443982 36.401648 36.358080
36.313308 36.267372 36.220305 36.172149 36.122940 36.072723 36.021533 35.969419
35.916418 35.862577 35.807936 35.752542 35.696433 35.639659 35.582256 35.524272
35.465743 35.406716 35.347226 35.287316 35.227019 35.166378 35.105423 35.044192
34.982714 34.921024 34.859147 34.797117 34.734954 34.672688 34.610338 34.547929
34.485478 34.423006 34.360526 34.298057 34.235608 34.173195 34.110825 34.048511
33.986255 33.924069 33.861953 33.799914 33.737951 33.676070 33.614267 33.552544
33.490897 33.429326 33.367825 33.306392 33.245021 33.183707 33.122444 33.061226
33.000046 32.938896 32.877770 32.816659 32.755556
33.133333 33.227090 33.320856 33.414643 33.508459 33.602315 33.696219 33.790181
33.884206 33.978305 34.072481 34.166742 34.261090 34.355531 34.450063 34.544692
34.639411 34.734223 34.829119 34.924099 35.019150 35.114267 35.209434 35.304643
35.399872 35.495109 35.590329 35.685514 35.780634 35.875668 35.970580 36.065344
36.159919 36.254274 36.348364 36.442153 36.535590 36.628636 36.721234 36.813342
36.904898 36.995855 37.086149 37.175728 37.264527 37.352490 37.439549 37.525647
37.610713 37.694690 37.777506 37.859102 37.939409 38.018367 38.095908 38.171974
38.246497 38.319425 38.390690 38.460243 38.528022 38.593980 38.658059 38.720216
38.780400 38.838572 38.894684 38.948704 39.000589 39.050310 39.097831 39.143129
39.186171 39.226939 39.265406 39.301557 39.335370 39.366833 39.395929 39.422649
39.446980 39.468914 39.488443 39.505560 39.520260 39.532539 39.542392 39.549819
39.554815 39.557381 39.557517 39.555222 39.550497 39.543345 39.533768 39.521768
39.507352 39.490522 39.471287 39.449653 39.425628 39.399222 39.370448 39.339315
39.305842 39.270042 39.231936 39.191541 39.148883 39.103983 39.056873 39.007577
38.956132 38.902568 38.846927 38.789244 38.729565 38.667930 38.604392 38.538995
38.471796 38.402842 38.332197 38.259911 38.186050 38.110669 38.033835 37.955607
37.876054 37.795235 37.713221 37.630071 37.545857 37.460636 37.374480 37.287446
37.199604 37.111007 37.021723 36.931804 36.841314 36.750301 36.658825 36.566930
36.474672 36.382092 36.289241 36.196153 36.102875 36.009438 35.915883 35.822236
35.728532 35.634793 35.541050 35.447319 35.353626 35.259983 35.166411 35.072918
34.979521 34.886223 34.793037 34.699963 34.607010 34.514176 34.421463 34.328869
34.236392 34.144027 34.051771 33.959616 33.867555 33.775580 33.683682 33.591851
33.500078 33.408351 33.316659 33.224990 33.133333
33.511111 33.636125 33.761153 33.886208 34.011303 34.136451 34.261665 34.386955
34.512334 34.637808 34.763389 34.889083 35.014896 35.140832 35.266895 35.393084
35.519401 35.645839 35.772397 35.899063 36.025832 36.152686 36.279615 36.406597
36.533615 36.660640 36.787653 36.914615 37.041501 37.168267 37.294882 37.421295
37.547468 37.673342 37.798875 37.924001 38.048669 38.172810 38.296366 38.419261
38.541432 38.662798 38.783291 38.902824 39.021327 39.138708 39.254893 39.369789
39.483318 39.595386 39.705915 39.814809 39.921990 40.027364 40.130854 40.232368
40.331831 40.429155 40.524269 40.617088 40.707547 40.795566 40.881084 40.964029
41.044345 41.121968 41.196847 41.268925 41.338160 41.404500 41.467908 41.528342
41.585771 41.640159 41.691480 41.739705 41.784815 41.826784 41.865599 41.901239
41.933695 41.962951 41.989000 42.011830 42.031437 42.047814 42.060956 42.070860
42.077524 42.080947 42.081127 42.078065 42.071763 42.062224 42.049449 42.033445
42.014216 41.991769 41.966111 41.937254 41.905206 41.869983 41.831597 41.790068
41.745412 41.697653 41.646813 41.592922 41.536005 41.476101 41.413241 41.347468
41.278820 41.207348 41.133097 41.056125 40.976482 40.894234 40.809437 40.722165
40.632479 40.540459 40.446172 40.349703 40.251123 40.150522 40.047975 39.943574
39.837398 39.729541 39.620081 39.509115 39.396721 39.282995 39.168014 39.051872
38.934644 38.816421 38.697275 38.577293 38.456543 38.335107 38.213047 38.090441
37.967346 37.843832 37.719950 37.595766 37.471323 37.346680 37.221874 37.096956
36.971958 36.846925 36.721881 36.596865 36.471894 36.347001 36.222198 36.097510
35.972945 35.848523 35.724246 35.600127 35.476165 35.352368 35.228731 35.105258
34.981940 34.858776 34.735755 34.612873 34.490115 34.367475 34.244937 34.122491
34.000121 33.877814 33.755553 33.633324 33.511111
33.888889 34.045166 34.201460 34.357788 34.514167 34.670614 34.827143 34.983770
35.140507 35.297369 35.454363 35.611502 35.768791 35.926239 36.083845 36.241616
36.399544 36.557634 36.715871 36.874253 37.032761 37.191387 37.350105 37.508899
37.667737 37.826596 37.985435 38.144226 38.302918 38.461475 38.619839 38.777965
38.935785 39.093249 39.250280 39.406818 39.562779 39.718095 39.872675 40.026443
40.179300 40.331165 40.481931 40.631512 40.779795 40.926691 41.072081 41.215872
41.357945 41.498202 41.636524 41.772811 41.906946 42.038831 42.168347 42.295400
42.419876 42.541684 42.660715 42.776882 42.890084 43.000239 43.107254 43.211055
43.311555 43.408690 43.502381 43.592572 43.679195 43.762199 43.841527 43.917137
43.988978 44.057018 44.121214 44.181540 44.237962 44.290459 44.339004 44.383581
44.424170 44.460760 44.493335 44.521887 44.546405 44.566884 44.583318 44.595703
44.604036 44.608315 44.608540 44.604711 44.596830 44.584900 44.568925 44.548910
44.524863 44.496790 44.464703 44.428611 44.388531 44.344475 44.296465 44.244518
44.188662 44.128918 44.065323 43.997903 43.926701 43.851753 43.773110 43.690813
43.604923 43.515490 43.422584 43.326262 43.226602 43.123672 43.017559 42.908337
42.796101 42.680932 42.562935 42.442195 42.318823 42.192910 42.064572 41.933905
41.801026 41.666033 41.529048 41.390168 41.249515 41.107186 40.963301 40.817954
40.671264 40.523321 40.374239 40.224104 40.073023 39.921078 39.768369 39.614971
39.460976 39.306453 39.151486 38.996135 38.840477 38.684562 38.528461 38.372215
38.215884 38.059504 37.903126 37.746777 37.590500 37.434315 37.278256 37.122338
36.966586 36.811008 36.655623 36.500432 36.345449 36.190668 36.036097 35.881728
35.727560 35.573583 35.419791 35.266170 35.112712 34.959398 34.806216 34.653148
34.500178 34.347286 34.194454 34.041661 33.888889
34.266667 34.454212 34.641778 34.829385 35.017056 35.204807 35.392661 35.580632
35.768740 35.956996 36.145419 36.334014 36.522798 36.711770 36.900943 37.090311
37.279881 37.469641 37.659592 37.849714 38.040002 38.230429 38.420982 38.611624
38.802334 38.993068 39.183795 39.374461 39.565028 39.755428 39.945616 40.135515
40.325067 40.514186 40.702807 40.890830 41.078182 41.264754 41.450461 41.635188
41.818841 42.001295 42.182450 42.362173 42.540357 42.716864 42.891582 43.064368
43.235107 43.403654 43.569891 43.733673 43.894882 44.053375 44.209034 44.361721
44.511323 44.657704 44.800757 44.940356 45.076399 45.208767 45.337369 45.462094
45.582859 45.699566 45.812141 45.920497 46.024570 46.124283 46.219583 46.310404
46.396703 46.478424 46.555531 46.627981 46.695744 46.758785 46.817083 46.870610
46.919350 46.963282 47.002395 47.036674 47.066112 47.090698 47.110428 47.125296
47.135299 47.140436 47.140705 47.136107 47.126645 47.112322 47.093142 47.069112
47.040238 47.006532 46.968003 46.924667 46.876537 46.823635 46.765978 46.703595
46.636509 46.564758 46.488370 46.407392 46.321861 46.231833 46.137353 46.038488
45.935294 45.827847 45.716213 45.600480 45.480723 45.357043 45.229523 45.098274
44.963389 44.824988 44.683174 44.538074 44.389797 44.238479 44.084233 43.927201
43.767498 43.605271 43.440637 43.273743 43.104707 42.933675 42.760763 42.586114
42.409842 42.232085 42.052951 41.872572 41.691050 41.508511 41.325048 41.140778
40.955787 40.770181 40.584037 40.397454 40.210496 40.023251 39.835777 39.648151
39.460418 39.272645 39.084871 38.897150 38.709512 38.522003 38.334641 38.147464
37.960484 37.773728 37.587200 37.400920 37.214885 37.029106 36.843576 36.658299
36.473262 36.288463 36.103885 35.919520 35.735348 35.551356 35.367522 35.183828
35.000251 34.816771 34.633362 34.450002 34.266667
34.644444 34.863264 35.082109 35.301003 35.519971 35.739037 35.958222 36.177550
36.397037 36.616705 36.836565 37.056638 37.276929 37.497452 37.718208 37.939206
38.160437 38.381905 38.603595 38.825503 39.047602 39.269882 39.492306 39.714856
39.937484 40.160161 40.382828 40.605447 40.827946 41.050277 41.272357 41.494124
41.715484 41.936364 42.156657 42.376280 42.595114 42.813063 43.029998 43.245813
43.460368 43.673548 43.885203 44.095210 44.303411 44.509675 44.713840 44.915770
45.115296 45.312281 45.506555 45.697978 45.886381 46.071626 46.253545 46.432004
46.606841 46.777927 46.945108 47.108261 47.267242 47.421936 47.572212 47.717964
47.859072 47.995443 48.126969 48.253570 48.375151 48.491642 48.602961 48.709053
48.809847 48.905297 48.995346 49.079958 49.159085 49.232701 49.300769 49.363268
49.420171 49.471462 49.517122 49.557141 49.591504 49.620204 49.643234 49.660588
49.672264 49.678258 49.678571 49.673204 49.662158 49.645437 49.623047 49.594994
49.561288 49.521936 49.476956 49.426358 49.370165 49.308393 49.241072 49.168222
49.089884 49.006085 48.916875 48.822290 48.722390 48.617222 48.506858 48.391356
48.270799 48.145258 48.014828 47.879592 47.739661 47.595126 47.446112 47.292722
47.135092 46.973336 46.807600 46.638008 46.464716 46.287853 46.107583 45.924041
45.737396 45.547787 45.355383 45.160326 44.962786 44.762902 44.560845 44.356748
44.150778 43.943064 43.733767 43.523008 43.310940 43.097677 42.883361 42.668097
42.452016 42.235214 42.017811 41.799888 41.581556 41.362885 41.143972 40.924877
40.705684 40.486440 40.267219 40.048058 39.829016 39.610120 39.391420 39.172932
38.954693 38.736713 38.519019 38.301610 38.084505 37.867696 37.651193 37.434982
37.219065 37.003423 36.788051 36.572925 36.358033 36.143350 35.928859 35.714530
35.500343 35.286268 35.072279 34.858347 34.644444
35.022222 35.272323 35.522454 35.772642 36.022917 36.273305 36.523834 36.774526
37.025409 37.276498 37.527819 37.779381 38.031206 38.283296 38.535668 38.788315
39.041248 39.294451 39.547928 39.801652 40.055619 40.309791 40.564153 40.818658
41.073278 41.327953 41.582645 41.837281 42.091810 42.346145 42.600223 42.853942
43.107226 43.359960 43.612055 43.863380 44.113833 44.363272 44.611581 44.858605
45.104218 45.348252 45.590570 45.830994 46.069380 46.305541 46.539325 46.770540
46.999028 47.224595 47.447079 47.666285 47.882052 48.094187 48.302532 48.506897
48.707129 48.903046 49.094504 49.281329 49.463386 49.640515 49.812591 49.979467
50.141031 50.297152 50.447729 50.592648 50.731823 50.865153 50.992566 51.113977
51.229328 51.338547 51.441587 51.538391 51.628922 51.713136 51.791004 51.862492
51.927580 51.986242 52.038465 52.084230 52.123528 52.156348 52.182683 52.202527
52.215877 52.222730 52.223087 52.216948 52.204315 52.185193 52.159587 52.127505
52.088954 52.043950 51.992501 51.934630 51.870351 51.799692 51.722674 51.639335
51.549704 51.453827 51.351743 51.243512 51.129181 51.008824 50.882501 50.750300
50.612293 50.468584 50.319258 50.164435 50.004213 49.838728 49.668092 49.492453
49.311938 49.126709 48.936902 48.742692 48.544225 48.341684 48.135223 47.925034
47.711275 47.494141 47.273793 47.050430 46.824212 46.595336 46.363960 46.130276
45.894439 45.656636 45.417011 45.175745 44.932974 44.688867 44.443550 44.197181
43.949873 43.701773 43.452981 43.203628 42.953803 42.703623 42.453164 42.202528
41.951777 41.701000 41.450246 41.199589 40.949067 40.698740 40.448634 40.198797
39.949244 39.700010 39.451100 39.202538 38.954322 38.706465 38.458955 38.211796
37.964972 37.718477 37.472288 37.226394 36.980767 36.735388 36.490227 36.245259
36.000453 35.755779 35.511204 35.266697 35.022222
35.400000 35.681390 35.962814 36.244305 36.525894 36.807615 37.089496 37.371568
37.653856 37.936387 38.219180 38.502259 38.785633 39.069324 39.353331 39.637670
39.922330 40.207318 40.492613 40.778214 41.064087 41.350221 41.636569 41.923108
42.209778 42.496543 42.783328 43.070084 43.356721 43.643175 43.929341 44.215140
44.500450 44.785177 45.069185 45.352364 45.634560 45.915652 46.195469 46.473876
46.750689 47.025760 47.298892 47.569925 47.838653 48.104907 48.368472 48.629171
48.886786 49.141133 49.391992 49.639180 49.882474 50.121694 50.356622 50.587079
50.812856 51.033783 51.249658 51.460322 51.665586 51.865301 52.059295 52.247433
52.429557 52.605549 52.775268 52.938611 53.095457 53.245716 53.389286 53.526093
53.656050 53.779100 53.895171 54.004217 54.106181 54.201030 54.288720 54.369226
54.442514 54.508568 54.567363 54.618889 54.663129 54.700077 54.729721 54.752059
54.767085 54.774799 54.775199 54.768286 54.754064 54.732535 54.703708 54.667587
54.624185 54.573512 54.515585 54.450418 54.378037 54.298461 54.211726 54.117858
54.016903 53.908898 53.793901 53.671959 53.543147 53.407524 53.265180 53.116187
52.960655 52.798670 52.630358 52.455823 52.275208 52.088633 51.896258 51.698218
51.494688 51.285819 51.071800 50.852793 50.629000 50.400594 50.167785 49.930754
49.689718 49.444861 49.196406 48.944536 48.689476 48.431407 48.170550 47.907083
47.641223 47.373138 47.103036 46.831079 46.557463 46.282337 46.005887 45.728248
45.449591 45.170039 44.889747 44.608822 44.327405 44.045588 43.763494 43.481201
43.198816 42.916401 42.634047 42.351803 42.069745 41.787906 41.506348 41.225092
40.944184 40.663636 40.383480 40.103716 39.824365 39.545417 39.266882 38.988743
38.710998 38.433623 38.156609 37.879926 37.603556 37.327465 37.051630 36.776012
36.500583 36.225303 35.950139 35.675050 35.400000
35.777778 36.090464 36.403189 36.715989 37.028903 37.341965 37.655212 37.968674
38.282386 38.596371 38.910661 39.225271 39.540228 39.855538 40.171223 40.487277
40.803714 41.120518 41.437693 41.755209 42.073061 42.391205 42.709622 43.028254
43.347070 43.665994 43.984981 44.303939 44.622806 44.941474 45.259864 45.577849
45.895335 46.212176 46.528261 46.843427 47.157545 47.470434 47.781950 48.091896
48.400111 48.706385 49.010542 49.312359 49.611649 49.908177 50.201748 50.492118
50.779085 51.062401 51.341862 51.617217 51.888261 52.154748 52.416474 52.673200
52.924729 53.170831 53.411319 53.645975 53.874625 54.097068 54.313144 54.522668
54.725500 54.921472 55.110461 55.292322 55.466949 55.634216 55.794035 55.946300
56.090941 56.227871 56.357033 56.478358 56.591804 56.697316 56.794864 56.884406
56.965921 57.039379 57.104766 57.162061 57.211255 57.252334 57.285295 57.310129
57.326835 57.335408 57.335851 57.328163 57.312347 57.288409 57.256352 57.216188
57.167921 57.111571 57.047145 56.974670 56.894159 56.805647 56.709156 56.604731
56.492404 56.372232 56.244260 56.108559 55.965188 55.814235 55.655774 55.489914
55.316743 55.136389 54.948961 54.754606 54.553450 54.345660 54.131380 53.910798
53.684072 53.451409 53.212982 52.969013 52.719688 52.465240 52.205867 51.941811
51.673276 51.400510 51.123720 50.843156 50.559026 50.271579 49.981017 49.687586
49.391481 49.092941 48.792150 48.489335 48.184672 47.878372 47.570597 47.261544
46.951359 46.640224 46.328266 46.015652 45.702491 45.388930 45.075064 44.761021
44.446877 44.132744 43.818681 43.504781 43.191090 42.877682 42.564588 42.251866
41.939533 41.627633 41.316170 41.005174 40.694637 40.384576 40.074975 39.765837
39.457138 39.148872 38.841006 38.533526 38.226395 37.919587 37.613063 37.306792
37.000730 36.694841 36.389081 36.083408 35.777778
36.155556 36.499545 36.843578 37.187697 37.531942 37.876358 38.220979 38.565848
38.910994 39.256457 39.602257 39.948429 40.294986 40.641956 40.989340 41.337160
41.685404 42.034084 42.383177 42.732681 43.082559 43.432797 43.783342 44.134166
44.485198 44.836394 45.187666 45.538954 45.890148 46.241173 46.591898 46.942229
47.292017 47.641148 47.989451 48.336794 48.682988 49.027880 49.371264 49.712968
50.052767 50.390474 50.725849 51.058691 51.388743 51.715793 52.039576 52.359869
52.676400 52.988939 53.297212 53.600987 53.899988 54.193988 54.482716 54.765947
55.043420 55.314921 55.580202 55.839060 56.091263 56.336625 56.574932 56.806016
57.029686 57.245792 57.454164 57.654675 57.847177 58.031564 58.207709 58.375526
58.534911 58.685795 58.828096 58.961759 59.086720 59.202940 59.310370 59.408981
59.498739 59.579625 59.651612 59.714692 59.768845 59.814067 59.850347 59.877682
59.896068 59.905503 59.905987 59.897522 59.880111 59.853756 59.818467 59.774247
59.721110 59.659064 59.588130 59.508320 59.419664 59.322181 59.215910 59.100882
58.977148 58.844749 58.703754 58.554218 58.396226 58.229850 58.055196 57.872353
57.681449 57.482594 57.275936 57.061606 56.839778 56.610599 56.374266 56.130948
55.880862 55.624193 55.361180 55.092022 54.816972 54.536245 54.250107 53.958779
53.662537 53.361609 53.056273 52.746761 52.433352 52.116272 51.795799 51.472155
51.145607 50.816368 50.484697 50.150793 49.814902 49.477208 49.137940 48.797267
48.455400 48.112490 47.768728 47.424246 47.079217 46.733752 46.388004 46.042066
45.696068 45.350088 45.004234 44.658565 44.313172 43.968095 43.623407 43.279134
42.935329 42.592005 42.249199 41.906909 41.565159 41.223935 40.883247 40.543070
40.203403 39.864213 39.525487 39.187186 38.849287 38.511745 38.174529 37.837592
37.500895 37.164389 36.828030 36.491768 36.155556
36.533333 36.908632 37.283980 37.659423 38.035011 38.410787 38.786798 39.163082
39.539684 39.916634 40.293974 40.671723 41.049918 41.428568 41.807700 42.187313
42.567424 42.948016 43.329098 43.710636 44.092624 44.475015 44.857786 45.240872
45.624234 46.007787 46.391475 46.775191 47.158861 47.542356 47.925584 48.308391
48.690665 49.072231 49.452954 49.832638 50.211126 50.588201 50.963686 51.337342
51.708974 52.078323 52.445177 52.809261 53.170347 53.528147 53.882421 54.232870
54.579245 54.921243 55.258609 55.591037 55.918274 56.240016 56.556013 56.865969
57.169643 57.466753 57.757067 58.040319 58.316297 58.584753 58.845493 59.098293
59.342980 59.579355 59.807266 60.026541 60.237053 60.438652 60.631235 60.814677
60.988897 61.153794 61.309303 61.455347 61.591878 61.718835 61.836187 61.943888
62.041917 62.130242 62.208851 62.277721 62.336847 62.386214 62.425821 62.455658
62.475726 62.486023 62.486549 62.477305 62.458294 62.429521 62.390990 62.342710
62.284688 62.216940 62.139476 62.052320 61.955486 61.849012 61.732919 61.607257
61.472060 61.327392 61.173302 61.009872 60.837168 60.655293 60.464333 60.264415
60.055643 59.838171 59.612127 59.377688 59.135005 58.884283 58.625693 58.359465
58.085794 57.804929 57.517085 57.222531 56.921499 56.614274 56.301099 55.982272
55.658044 55.328721 54.994558 54.655863 54.312891 53.965948 53.615284 53.261200
52.903936 52.543782 52.180968 51.815769 51.448400 51.079119 50.708123 50.335652
49.961883 49.587036 49.211266 48.834772 48.457689 48.080191 47.702393 47.324448
46.946447 46.568522 46.190745 45.813224 45.436013 45.059199 44.682818 44.306938
43.931576 43.556783 43.182562 42.808945 42.435922 42.063509 41.691685 41.320453
40.949779 40.579654 40.210038 39.840909 39.472220 39.103940 38.736017 38.368413
38.001071 37.633947 37.266984 36.900132 36.533333
36.911111 37.317725 37.724393 38.131169 38.538104 38.945252 39.352659 39.760376
40.168443 40.576907 40.985798 41.395160 41.805010 42.215384 42.626289 43.037751
43.449762 43.862336 44.275449 44.689104 45.103259 45.517900 45.932967 46.348429
46.764205 47.180246 47.596449 48.012744 48.429006 48.845143 49.261005 49.676479
50.091390 50.505602 50.918915 51.331169 51.742139 52.151645 52.559436 52.965310
53.368995 53.770266 54.168834 54.564454 54.956820 55.345673 55.730692 56.111606
56.488086 56.859853 57.226572 57.587963 57.943691 58.293476 58.636991 58.973964
59.304076 59.627068 59.942637 60.250540 60.550496 60.842280 61.125634 61.400359
61.666222 61.923049 62.170635 62.408831 62.637464 62.856408 63.065518 63.264695
63.453818 63.632813 63.801583 63.960073 64.108210 64.245955 64.373253 64.490078
64.596393 64.692182 64.777419 64.852097 64.916198 64.969720 65.012653 65.044998
65.066749 65.077908 65.078474 65.068449 65.047838 65.016640 64.974865 64.922515
64.859603 64.786135 64.702132 64.607603 64.502578 64.387075 64.261136 64.124789
63.978092 63.821086 63.653848 63.476437 63.288951 63.091468 62.884112 62.666984
62.440233 62.203985 61.958419 61.703685 61.439990 61.167512 60.886486 60.597112
60.299653 59.994334 59.681439 59.361213 59.033962 58.699947 58.359488 58.012859
57.660390 57.302362 56.939112 56.570922 56.198129 55.821012 55.439904 55.055075
54.666850 54.275487 53.881296 53.484520 53.085453 52.684318 52.281390 51.876872
51.471014 51.063999 50.656054 50.247336 49.838049 49.428327 49.018348 48.608223
48.198105 47.788083 47.378285 46.968779 46.559669 46.151002 45.742861 45.335274
44.928302 44.521956 44.116279 43.711264 43.306938 42.903280 42.500299 42.097965
41.696270 41.295175 40.894661 40.494677 40.095195 39.696158 39.297527 38.899243
38.501257 38.103508 37.705942 37.308496 36.911111
37.288889 37.726822 38.164816 38.602927 39.041219 39.479743 39.918560 40.357716
40.797269 41.237257 41.677730 42.118718 42.560265 43.002385 43.445115 43.888456
44.332431 44.777026 45.222252 45.668076 46.114493 46.561450 47.008925 47.456844
47.905166 48.353793 48.802663 49.251653 49.700678 50.149591 50.598283 51.046578
51.494342 51.941374 52.387515 52.832533 53.276246 53.718396 54.158774 54.597098
55.033133 55.466577 55.897172 56.324593 56.748565 57.168747 57.584846 57.996509
58.403433 58.805256 59.201669 59.592306 59.976861 60.354969 60.726328 61.090584
61.447444 61.796571 62.137687 62.470474 62.794675 63.109997 63.416208 63.713043
64.000296 64.277734 64.545179 64.802431 65.049340 65.285737 65.511502 65.726496
65.930626 66.123781 66.305892 66.476872 66.636675 66.785235 66.922521 67.048489
67.163119 67.266381 67.358266 67.438753 67.507842 67.565519 67.611785 67.646636
67.670072 67.682092 67.682698 67.671892 67.649675 67.616052 67.571025 67.514603
67.446789 67.367597 67.277033 67.175121 67.061873 66.937323 66.801493 66.654432
66.496173 66.326785 66.146319 65.954864 65.752491 65.539316 65.315434 65.080988
64.836099 64.580943 64.315668 64.040480 63.755558 63.461139 63.157431 62.844703
62.523187 62.193181 61.854942 61.508793 61.155011 60.793939 60.425869 60.051159
59.670113 59.283096 58.890418 58.492447 58.089492 57.681919 57.270029 56.854182
56.434668 56.011832 55.585949 55.157348 54.726284 54.293064 53.857923 53.421144
52.982938 52.543562 52.103201 51.662087 51.220378 50.778279 50.335922 49.893486
49.451076 49.008843 48.566872 48.125284 47.684142 47.243543 46.803528 46.364171
45.925491 45.487543 45.050328 44.613879 44.178182 43.743253 43.309061 42.875608
42.442851 42.010776 41.579331 41.148488 40.718190 40.288396 39.859043 39.430080
39.001442 38.573071 38.144898 37.716860 37.288889
37.666667 38.135921 38.605242 39.074695 39.544344 40.014255 40.484485 40.955099
41.426143 41.897680 42.369746 42.842396 43.315655 43.789569 44.264149 44.739430
45.215406 45.692098 46.169483 46.647568 47.126308 47.605691 48.085652 48.566158
49.047120 49.528484 50.010133 50.491991 50.973914 51.455800 51.937475 52.418811
52.899606 53.379703 53.858870 54.336922 54.813598 55.288684 55.761891 56.232978
56.701628 57.167575 57.630479 58.090048 58.545923 58.997793 59.445279 59.888059
60.325740 60.757990 61.184410 61.604664 62.018355 62.425147 62.824650 63.216537
63.600431 63.976021 64.342949 64.700924 65.049613 65.388750 65.718033 66.037225
66.346055 66.644319 66.931782 67.208270 67.473584 67.727584 67.970106 68.201039
68.420251 68.627660 68.823165 69.006706 69.178209 69.337636 69.484932 69.620076
69.743032 69.853789 69.952324 70.038636 70.112710 70.174550 70.224147 70.261507
70.286626 70.299507 70.300153 70.288563 70.264742 70.228689 70.180411 70.119907
70.047189 69.962257 69.865129 69.755810 69.634327 69.500694 69.354950 69.197122
69.027266 68.845423 68.651673 68.446078 68.228743 67.999752 67.759243 67.507326
67.244172 66.969922 66.684781 66.388923 66.082586 65.765979 65.439375 65.103012
64.757197 64.402198 64.038351 63.665948 63.285351 62.896872 62.500892 62.097739
61.687806 61.271430 60.849011 60.420886 59.987458 59.549059 59.106083 58.658856
58.207758 57.753100 57.295246 56.834486 56.371163 55.905544 55.437948 54.968616
54.497840 54.025833 53.552859 53.079102 52.604797 52.130099 51.655212 51.180265
50.705432 50.230815 49.756558 49.282737 48.809470 48.336808 47.864844 47.393605
46.923159 46.453515 45.984718 45.516758 45.049658 44.583395 44.117971 43.653350
43.189518 42.726425 42.264045 41.802317 41.341202 40.880633 40.420559 39.960909
39.501623 39.042625 38.583850 38.125221 37.666667
38.044444 38.545020 39.045669 39.546463 40.047476 40.548773 41.050428 41.552500
42.055057 42.558148 43.061838 43.566162 44.071176 44.576903 45.083389 45.590639
46.098685 46.607516 47.117148 47.627549 48.138718 48.650599 49.163171 49.676354
50.190104 50.704314 51.218915 51.733771 52.248788 52.763799 53.278680 53.793234
54.307308 54.820671 55.333140 55.844452 56.354392 56.862665 57.369027 57.873151
58.374763 58.873510 59.369089 59.861122 60.349282 60.833169 61.312439 61.786673
62.255514 62.718533 63.175365 63.625576 64.068801 64.504610 64.932643 65.352482
65.763778 66.166132 66.559216 66.942656 67.316148 67.679349 68.031987 68.373753
68.704408 69.023683 69.331374 69.627252 69.911148 70.182872 70.442292 70.689255
70.923660 71.145389 71.354371 71.550517 71.733780 71.904099 72.061445 72.205778