# vtk DataFile Version 3.0
Steady-state temperature (Jacobi)
ASCII
DATASET STRUCTURED_POINTS
DIMENSIONS 181 181 1
ORIGIN 0.0 0.0 0.0
SPACING 0.05 0.05 1.0
POINT_DATA 32761
SCALARS Temperature float 1
LOOKUP_TABLE default
32.000000 32.000000 32.000000 32.000000 32.000000 32.000000 32.000000 32.000000
32.000000 32.000000 32.000000 32.000000 32.000000 32.000000 32.000000 32.000000
32.000000 32.000000 32.000000 32.000000 32.000000 32.000000 32.000000 32.000000
32.000000 32.000000 32.000000 32.000000 32.000000 32.000000 32.000000 32.000000
32.000000 32.000000 32.000000 32.000000 32.000000 32.000000 32.000000 32.000000
32.000000 32.000000 32.000000 32.000000 32.000000 32.000000 32.000000 32.000000
32.000000 32.000000 32.000000 32.000000 32.000000 32.000000 32.000000 32.000000
32.000000 32.000000 32.000000 32.000000 32.000000 32.000000 32.000000 32.000000
32.000000 32.000000 32.000000 32.000000 32.000000 32.000000 32.000000 32.000000
32.000000 32.000000 32.000000 32.000000 32.000000 32.000000 32.000000 32.000000
32.000000 32.000000 32.000000 32.000000 32.000000 32.000000 32.000000 32.000000
32.000000 32.000000 32.000000 32.000000 32.000000 32.000000 32.000000 32.000000
32.000000 32.000000 32.000000 32.000000 32.000000 32.000000 32.000000 32.000000
32.000000 32.000000 32.000000 32.000000 32.000000 32.000000 32.000000 32.000000
32.000000 32.000000 32.000000 32.000000 32.000000 32.000000 32.000000 32.000000
32.000000 32.000000 32.000000 32.000000 32.000000 32.000000 32.000000 32.000000
32.000000 32.000000 32.000000 32.000000 32.000000 32.000000 32.000000 32.000000
32.000000 32.000000 32.000000 32.000000 32.000000 32.000000 32.000000 32.000000
32.000000 32.000000 32.000000 32.000000 32.000000 32.000000 32.000000 32.000000
32.000000 32.000000 32.000000 32.000000 32.000000 32.000000 32.000000 32.000000
32.000000 32.000000 32.000000 32.000000 32.000000 32.000000 32.000000 32.000000
32.000000 32.000000 32.000000 32.000000 32.000000 32.000000 32.000000 32.000000
32.000000 32.000000 32.000000 32.000000 32.000000
32.377778 32.390012 32.402269 32.414578 32.426957 32.439437 32.452034 32.464780
32.477688 32.490792 32.504099 32.517647 32.531437 32.545508 32.559856 32.574522
32.589496 32.604820 32.620479 32.636514 32.652904 32.669693 32.686851 32.704423
32.722373 32.740745 32.759498 32.778674 32.798227 32.818196 32.838531 32.859268
32.880353 32.901820 32.923609 32.945752 32.968183 32.990934 33.013934 33.037211
33.060692 33.084402 33.108264 33.132301 33.156434 33.180683 33.204966 33.229303
33.253610 33.277905 33.302102 33.326219 33.350170 33.373971 33.397538 33.420885
33.443931 33.466688 33.489076 33.511110 33.532712 33.553894 33.574585 33.594796
33.614458 33.633585 33.652112 33.670051 33.687344 33.704003 33.719974 33.735269
33.749840 33.763698 33.776801 33.789160 33.800737 33.811543 33.821546 33.830755
33.839143 33.846720 33.853461 33.859377 33.864448 33.868681 33.872063 33.874599
33.876281 33.877111 33.877087 33.876209 33.874478 33.871894 33.868462 33.864180
33.859060 33.853094 33.846302 33.838675 33.830235 33.820974 33.810918 33.800059
33.788428 33.776014 33.762855 33.748941 33.734313 33.718960 33.702932 33.686214
33.668862 33.650863 33.632276 33.613089 33.593367 33.573096 33.552345 33.531103
33.509443 33.487351 33.464906 33.442093 33.418994 33.395594 33.371977 33.348128
33.324132 33.299973 33.275737 33.251408 33.227071 33.202708 33.178405 33.154141
33.130000 33.105960 33.082104 33.058406 33.034947 33.011699 32.988739 32.966037
32.943666 32.921594 32.899888 32.878516 32.857540 32.836924 32.816726 32.796909
32.777524 32.758532 32.739980 32.721827 32.704114 32.686799 32.669916 32.653424
32.637351 32.621654 32.606356 32.591415 32.576848 32.562612 32.548718 32.535125
32.521839 32.508819 32.496066 32.483541 32.471239 32.459123 32.447184 32.435387
32.423717 32.412144 32.400648 32.389200 32.377778
32.755556 32.780042 32.804579 32.829210 32.853995 32.878967 32.904190 32.929692
32.955542 32.981756 33.008409 33.035508 33.063130 33.091272 33.120016 33.149346
33.179346 33.209991 33.241364 33.273430 33.306271 33.339842 33.374225 33.409360
33.445331 33.482067 33.519647 33.557990 33.597174 33.637103 33.677855 33.719322
33.761577 33.804504 33.848169 33.892448 33.937402 33.982897 34.028990 34.075539
34.122596 34.170011 34.217832 34.265901 34.314264 34.362758 34.411423 34.460093
34.508805 34.557389 34.605881 34.654110 34.702108 34.749706 34.796933 34.843622
34.889803 34.935311 34.980175 35.024236 35.067521 35.109879 35.151337 35.191751
35.231148 35.269393 35.306513 35.342384 35.377030 35.410338 35.442335 35.472915
35.502106 35.529813 35.556061 35.580770 35.603961 35.625564 35.645601 35.664011
35.680814 35.695959 35.709464 35.721288 35.731446 35.739907 35.746682 35.751751
35.755120 35.756780 35.756732 35.754976 35.751510 35.746343 35.739471 35.730911
35.720654 35.708730 35.695125 35.679878 35.662972 35.644458 35.624315 35.602605
35.579306 35.554488 35.528128 35.500308 35.471004 35.440309 35.408196 35.374770
35.340006 35.304017 35.266777 35.228412 35.188895 35.148360 35.106783 35.064306
35.020904 34.976727 34.931749 34.886130 34.839841 34.793046 34.745719 34.698026
34.649938 34.601625 34.553056 34.504403 34.455630 34.406909 34.358203 34.309680
34.261300 34.213227 34.165416 34.118027 34.071012 34.024524 33.978508 33.933113
33.888278 33.844142 33.800642 33.757907 33.715868 33.674646 33.634168 33.594542
33.555694 33.517720 33.480541 33.444244 33.408747 33.374125 33.340294 33.307317
33.275109 33.243722 33.213070 33.183193 33.154005 33.125536 33.097700 33.070516
33.043900 33.017859 32.992314 32.967260 32.942621 32.918383 32.894474 32.870871
32.847505 32.824346 32.801330 32.778419 32.755556
33.133333 33.170112 33.206962 33.243965 33.281181 33.318700 33.356571 33.394892
33.433697 33.473094 33.513101 33.553832 33.595290 33.637595 33.680732 33.724826
33.769847 33.815921 33.863000 33.911213 33.960495 34.010973 34.062567 34.115401
34.169378 34.224620 34.281012 34.338674 34.397472 34.457522 34.518673 34.581037
34.644446 34.709006 34.774533 34.841127 34.908590 34.977014 35.046188 35.116198
35.186820 35.258132 35.329901 35.402199 35.474783 35.547718 35.620756 35.693955
35.767063 35.840134 35.912912 35.985446 36.057481 36.129064 36.199942 36.270157
36.339462 36.407898 36.475225 36.541481 36.606436 36.670129 36.732340 36.793106
36.852221 36.909724 36.965419 37.019347 37.071328 37.121401 37.169404 37.215374
37.259163 37.300811 37.340186 37.377324 37.412111 37.444580 37.474634 37.502302
37.527503 37.550264 37.570518 37.588288 37.603522 37.616237 37.626398 37.634015
37.639068 37.641562 37.641490 37.638851 37.633653 37.625890 37.615583 37.602721
37.587339 37.569419 37.549014 37.526100 37.500745 37.472920 37.442709 37.410079
37.375130 37.337828 37.298287 37.256470 37.212510 37.166367 37.118191 37.067942
37.015783 36.961677 36.905802 36.848120 36.788825 36.727878 36.665489 36.601618
36.536486 36.470056 36.402559 36.333956 36.264488 36.194116 36.123088 36.051362
35.979191 35.906532 35.833639 35.760465 35.687266 35.613990 35.540891 35.467912
35.395302 35.322999 35.251245 35.179972 35.109414 35.039494 34.970438 34.902162
34.834879 34.768499 34.703221 34.638948 34.575865 34.513868 34.453128 34.393534
34.335240 34.278131 34.222343 34.167758 34.114495 34.062430 34.011666 33.962077
33.913749 33.866553 33.820558 33.775635 33.731836 33.689033 33.647260 33.606392
33.566447 33.527302 33.488960 33.451303 33.414318 33.377892 33.341998 33.306530
33.271448 33.236652 33.202090 33.167673 33.133333
33.511111 33.560238 33.609467 33.658885 33.708610 33.758712 33.809319 33.860485
33.912348 33.964944 34.018420 34.072792 34.128214 34.184682 34.242355 34.301208
34.361405 34.422897 34.485851 34.550196 34.616100 34.683468 34.752467 34.822979
34.895170 34.968896 35.044320 35.121276 35.199922 35.280067 35.361863 35.445099
35.529918 35.616087 35.703742 35.792629 35.882874 35.974207 36.066743 36.160195
36.254669 36.349862 36.445872 36.542382 36.639482 36.736845 36.834551 36.932267
37.030066 37.127610 37.224965 37.321791 37.418151 37.513706 37.608512 37.702238
37.794938 37.886285 37.976333 38.064767 38.151637 38.236644 38.319838 38.400934
38.479983 38.556716 38.631186 38.703145 38.772642 38.839452 38.903624 38.964954
39.023490 39.079048 39.131679 39.181217 39.227711 39.271018 39.311183 39.348085
39.381763 39.412117 39.439183 39.462880 39.483236 39.500192 39.513768 39.523926
39.530678 39.534003 39.533907 39.530389 39.523444 39.513092 39.499321 39.482169
39.461615 39.437719 39.410453 39.379895 39.346011 39.308902 39.268526 39.225005
39.178296 39.128538 39.075686 39.019903 38.961140 38.899581 38.835176 38.768132
38.698398 38.626203 38.551494 38.474520 38.395232 38.313896 38.230463 38.145219
38.058114 37.969448 37.879173 37.787603 37.694688 37.600753 37.505745 37.410000
37.313460 37.216466 37.118958 37.021277 36.923356 36.825539 36.727751 36.630330
36.533196 36.436679 36.340690 36.245550 36.151160 36.057829 35.965450 35.874316
35.784311 35.695710 35.608387 35.522602 35.438218 35.355474 35.274225 35.194690
35.116716 35.040499 34.965881 34.893033 34.821794 34.752311 34.684417 34.618239
34.553606 34.490621 34.429112 34.369158 34.310590 34.253463 34.197609 34.143062
34.089656 34.037406 33.986149 33.935879 33.886442 33.837811 33.789839 33.742480
33.695599 33.649132 33.602954 33.556984 33.511111
33.888889 33.950443 34.012117 34.074047 34.136333 34.199129 34.262512 34.326650
34.391599 34.457538 34.524500 34.592674 34.662067 34.732876 34.805083 34.878892
34.954254 35.031379 35.110192 35.190902 35.273406 35.357914 35.444292 35.532750
35.623125 35.715620 35.810045 35.906598 36.005058 36.105617 36.208025 36.312466
36.418662 36.526788 36.636539 36.748078 36.861078 36.975690 37.091562 37.208835
37.327138 37.446598 37.566828 37.687942 37.809539 37.931722 38.054080 38.176706
38.299180 38.421587 38.543504 38.665008 38.785675 38.905578 39.024296 39.141898
39.257972 39.372582 39.485329 39.596275 39.705036 39.811674 39.915823 40.017545
40.116496 40.212736 40.305946 40.396188 40.483164 40.566940 40.647244 40.724139
40.797382 40.867034 40.932880 40.994979 41.053141 41.107424 41.157664 41.203914
41.246036 41.284077 41.317927 41.347623 41.373079 41.394327 41.411305 41.424034
41.432477 41.436644 41.436524 41.432116 41.423432 41.410462 41.393241 41.371748
41.346045 41.316101 41.282000 41.243705 41.201326 41.154817 41.104314 41.049765
40.991333 40.928961 40.862839 40.792906 40.719380 40.642197 40.561604 40.477536
40.390264 40.299725 40.206217 40.109677 40.010427 39.908406 39.803959 39.697024
39.587970 39.476734 39.363703 39.248815 39.132472 39.014608 38.895640 38.775498
38.654607 38.532894 38.410786 38.288206 38.165582 38.042829 37.920370 37.798113
37.676475 37.555352 37.435150 37.315755 37.197560 37.080437 36.964764 36.850400
36.737702 36.626519 36.517186 36.409540 36.303890 36.200063 36.098343 35.998546
35.900929 35.805300 35.711886 35.620489 35.531308 35.444136 35.359145 35.276123
35.195214 35.116202 35.039203 34.964001 34.890681 34.819029 34.749104 34.680695
34.613831 34.548308 34.484130 34.421099 34.359192 34.298223 34.238144 34.178779
34.120058 34.061820 34.003971 33.946365 33.888889
34.266667 34.340740 34.414968 34.489482 34.564458 34.640003 34.716311 34.793462
34.871666 34.950975 35.031613 35.113603 35.197179 35.282333 35.369308 35.458063
35.548848 35.641589 35.736539 35.833589 35.932994 36.034611 36.138693 36.245061
36.353964 36.465191 36.578982 36.695091 36.813752 36.934684 37.058110 37.183715
37.311714 37.441757 37.574045 37.708201 37.844410 37.982267 38.121944 38.263008
38.405618 38.549319 38.694253 38.839947 38.986531 39.133514 39.281015 39.428532
39.576170 39.723423 39.870385 40.016547 40.161997 40.306229 40.449322 40.590778
40.730673 40.868521 41.004396 41.137826 41.268885 41.397121 41.522608 41.644920
41.764129 41.879835 41.992114 42.100594 42.205351 42.306045 42.402752 42.495164
42.583355 42.667051 42.746326 42.820936 42.890951 42.956162 43.016634 43.072189
43.122885 43.168575 43.209311 43.244975 43.275609 43.301126 43.321556 43.336841
43.347001 43.352005 43.351862 43.346569 43.336121 43.320546 43.299825 43.274016
43.243087 43.207125 43.166089 43.120095 43.069091 43.013226 42.952439 42.886909
42.816570 42.741633 42.662027 42.577995 42.489463 42.396708 42.299654 42.198610
42.093499 41.984663 41.872026 41.755961 41.636393 41.513723 41.387878 41.259286
41.127876 40.994099 40.857884 40.719703 40.579483 40.437715 40.294321 40.149804
40.004084 39.857672 39.710480 39.563022 39.415203 39.267535 39.119913 38.972843
38.826209 38.680506 38.535604 38.391984 38.249503 38.108622 37.969183 37.831626
37.695778 37.562054 37.430267 37.300802 37.173459 37.048595 36.925994 36.805981
36.688332 36.573336 36.460758 36.350856 36.243384 36.138565 36.036149 35.936322
35.838831 35.743827 35.651053 35.560628 35.472295 35.386137 35.301902 35.219638
35.139099 35.060301 34.983005 34.907197 34.832647 34.759311 34.686971 34.615556
34.544863 34.474793 34.405160 34.335840 34.266667
34.644444 34.731155 34.818034 34.905275 34.993017 35.081478 35.170767 35.261121
35.352619 35.445514 35.539852 35.635899 35.733666 35.833431 35.935169 36.039165
36.145356 36.254033 36.365093 36.478831 36.595103 36.714203 36.835947 36.960625
37.088013 37.218395 37.351506 37.487621 37.626435 37.768213 37.912609 38.059876
38.209629 38.362107 38.516888 38.674197 38.833574 38.995230 39.158674 39.324096
39.490980 39.659498 39.829109 39.999968 40.171513 40.343885 40.516506 40.689502
40.862283 41.034965 41.206952 41.378349 41.548561 41.717683 41.885128 42.050984
42.214675 42.376287 42.535258 42.691673 42.844993 42.995301 43.142086 43.285430
43.424851 43.560435 43.691731 43.818827 43.941309 44.059264 44.172315 44.280550
44.383630 44.481642 44.574284 44.661643 44.743453 44.819796 44.890445 44.955474
45.014695 45.068172 45.115753 45.157491 45.193269 45.223130 45.246989 45.264876
45.276741 45.282598 45.282431 45.276239 45.264039 45.245815 45.221617 45.191415
45.155293 45.113209 45.065279 45.011448 44.951870 44.886478 44.815463 44.738749
44.656562 44.568823 44.475794 44.377391 44.273915 44.165280 44.051824 43.933461
43.810568 43.683057 43.551344 43.415342 43.275502 43.131740 42.984539 42.833817
42.680087 42.523267 42.363899 42.201900 42.037832 41.871610 41.703816 41.534360
41.363835 41.192146 41.019892 40.846970 40.673979 40.500807 40.328047 40.155573
39.983972 39.813102 39.643532 39.475107 39.308376 39.143167 38.980004 38.818698
38.659747 38.502941 38.348749 38.196945 38.047962 37.901559 37.758132 37.617425
37.479798 37.344981 37.213294 37.084456 36.958746 36.835876 36.716083 36.599074
36.485044 36.373695 36.265183 36.159210 36.055890 35.954927 35.856397 35.760007
35.665796 35.573477 35.483053 35.394247 35.307027 35.221129 35.136486 35.052850
34.970122 34.888073 34.806574 34.725417 34.644444
35.022222 35.121696 35.221376 35.321443 35.422130 35.523583 35.626060 35.729672
35.834700 35.941215 36.049516 36.159637 36.271890 36.386268 36.503094 36.622318
36.744271 36.868859 36.996417 37.126807 37.260364 37.396903 37.536758 37.679696
37.826048 37.975532 38.128471 38.284537 38.444041 38.606609 38.772539 38.941412
39.113509 39.288370 39.466257 39.646669 39.829850 40.015259 40.203122 40.392863
40.584688 40.777989 40.972953 41.168947 41.366138 41.563872 41.762299 41.960750
42.159359 42.357448 42.555137 42.751746 42.947383 43.141373 43.333816 43.524045
43.712157 43.897499 44.080166 44.259529 44.435678 44.608015 44.776630 44.940957
45.101087 45.256491 45.407264 45.552913 45.693538 45.828686 45.958459 46.082447
46.200752 46.313008 46.419315 46.519351 46.613211 46.700618 46.781660 46.856103
46.924026 46.985236 47.039802 47.087570 47.128598 47.162770 47.190128 47.210597
47.224202 47.230905 47.230714 47.223630 47.209642 47.188790 47.161046 47.126486
47.085067 47.036904 46.981940 46.920327 46.851996 46.777141 46.695681 46.607851
46.513561 46.413091 46.306344 46.193642 46.074886 45.950441 45.820207 45.684592
45.543498 45.397376 45.246127 45.090246 44.929637 44.764834 44.595743 44.422934
44.246316 44.066493 43.883373 43.697587 43.509045 43.318400 43.125557 42.931188
42.735192 42.538251 42.340257 42.141895 41.943047 41.744395 41.545809 41.347962
41.150706 40.954702 40.759784 40.566593 40.374943 40.185449 39.997907 39.812902
39.630208 39.450376 39.273162 39.099078 38.927859 38.759980 38.595158 38.433822
38.275674 38.121101 37.969789 37.822079 37.677646 37.536785 37.399161 37.265022
37.134029 37.006382 36.881739 36.760254 36.641586 36.525843 36.412688 36.302183
36.193999 36.088156 35.984333 35.882510 35.782379 35.683879 35.586720 35.490803
35.395856 35.301748 35.208226 35.115126 35.022222
35.400000 35.512391 35.625001 35.738080 35.851811 35.966473 36.082213 36.199333
36.317940 36.438359 36.560653 36.685166 36.811914 36.941256 37.073162 37.208000
37.345692 37.486613 37.630634 37.778133 37.928929 38.083400 38.241312 38.403039
38.568294 38.737443 38.910146 39.086759 39.266887 39.450874 39.638273 39.829410
40.023791 40.221720 40.422656 40.626883 40.833814 41.043711 41.255946 41.470758
41.687482 41.906334 42.126616 42.348522 42.571328 42.795208 43.019415 43.244104
43.468517 43.692790 43.916158 44.138745 44.359785 44.579391 44.796806 45.012134
45.224635 45.434407 45.640732 45.843708 46.042643 46.237636 46.428030 46.613926
46.794706 46.970475 47.140656 47.305358 47.464051 47.616845 47.763260 47.903407
48.036854 48.163713 48.283601 48.396627 48.502458 48.601196 48.692556 48.776635
48.853193 48.922316 48.983810 49.037747 49.083979 49.122560 49.153387 49.176496
49.191825 49.199393 49.199180 49.191184 49.175426 49.151887 49.120628 49.081611
49.034941 48.980562 48.918621 48.849046 48.772031 48.687490 48.595661 48.496448
48.390136 48.276623 48.156241 48.028881 47.894927 47.754267 47.607335 47.454017
47.294796 47.129563 46.958848 46.782544 46.601227 46.414794 46.223866 46.028342
45.828882 45.625388 45.418554 45.208284 44.995300 44.779503 44.561640 44.341607
44.120166 43.897205 43.673496 43.448915 43.224236 42.999321 42.774937 42.550930
42.328054 42.106136 41.885910 41.667181 41.450658 41.236124 41.024255 40.814812
40.608435 40.404861 40.204688 40.007633 39.814249 39.624230 39.438085 39.255486
39.076892 38.901961 38.731098 38.563947 38.400862 38.241473 38.086084 37.934316
37.786418 37.642008 37.501283 37.363858 37.229878 37.098961 36.971203 36.846225
36.724074 36.604383 36.487149 36.372017 36.258942 36.147584 36.037853 35.929431
35.822186 35.715824 35.610174 35.504968 35.400000
35.777778 35.903244 36.028973 36.155189 36.282189 36.410157 36.539418 36.670115
36.802599 36.936965 37.073587 37.212510 37.354127 37.498433 37.645832 37.796265
37.950149 38.107369 38.268344 38.432905 38.601472 38.773817 38.950359 39.130808
39.315578 39.504321 39.697437 39.894523 40.095962 40.301293 40.510884 40.724214
40.941632 41.162563 41.387331 41.615312 41.846804 42.081134 42.318575 42.558411
42.800888 43.045249 43.291717 43.539502 43.788801 44.038796 44.289664 44.540567
44.791661 45.042096 45.292011 45.540553 45.787847 46.033045 46.276261 46.516660
46.754350 46.988518 47.219267 47.445812 47.668259 47.885856 48.098711 48.306116
48.508180 48.704242 48.894416 49.078090 49.255383 49.425738 49.589274 49.745488
49.894504 50.035873 50.169715 50.295639 50.413761 50.523742 50.625692 50.719326
50.804743 50.881707 50.950306 51.010353 51.061920 51.104868 51.139249 51.164972
51.182068 51.190493 51.190257 51.181359 51.163788 51.137589 51.102729 51.059300
51.007248 50.946711 50.877618 50.800153 50.714230 50.620085 50.517615 50.407109
50.288454 50.161990 50.027600 49.885677 49.736100 49.579317 49.415206 49.244272
49.066394 48.882130 48.691364 48.494708 48.292048 48.084049 47.870601 47.652415
47.429386 47.202265 46.970951 46.736232 46.498005 46.257087 46.013373 45.767703
45.519963 45.271007 45.020713 44.769939 44.518548 44.267398 44.016333 43.766200
43.516823 43.269030 43.022623 42.778403 42.536149 42.296628 42.059593 41.825774
41.594897 41.367649 41.143729 40.923778 40.707468 40.495390 40.287194 40.083415
39.883683 39.688476 39.497407 39.310897 39.128542 38.950704 38.776971 38.607644
38.442302 38.281191 38.123883 37.970567 37.820815 37.674760 37.531977 37.392544
37.256045 37.122503 36.991515 36.863052 36.736727 36.612463 36.489892 36.368890
36.249114 36.130395 36.012419 35.894974 35.777778
36.155556 36.294287 36.433289 36.572871 36.713259 36.854799 36.997672 37.142252
37.288672 37.437333 37.588315 37.742041 37.898535 38.058237 38.221116 38.387623
38.557666 38.731706 38.909588 39.091777 39.278055 39.468884 39.663984 39.863810
40.068017 40.277051 40.490500 40.708797 40.931466 41.158920 41.390621 41.626961
41.867339 42.112123 42.360653 42.613271 42.869261 43.128936 43.391530 43.657324
43.925508 44.196334 44.468950 44.743581 45.019341 45.296428 45.573931 45.852024
46.129776 46.407343 46.683784 46.959237 47.232764 47.504487 47.773479 48.039853
48.302702 48.562133 48.817266 49.068210 49.314118 49.555100 49.790356 50.019997
50.243273 50.460302 50.670386 50.873649 51.069451 51.257922 51.438481 51.611261
51.775742 51.932059 52.079752 52.218954 52.349266 52.470815 52.583260 52.686718
52.780908 52.865932 52.941562 53.007887 53.064732 53.112164 53.150061 53.178468
53.197313 53.206618 53.206359 53.196536 53.177172 53.148243 53.109823 53.061863
53.004488 52.937626 52.861454 52.775882 52.681139 52.577118 52.464105 52.341980
52.211084 52.071289 51.922996 51.766071 51.600974 51.427571 51.246382 51.057275
50.860831 50.656921 50.446187 50.228505 50.004576 49.774281 49.538375 49.296746
49.050198 48.798623 48.542870 48.282831 48.019394 47.752449 47.482912 47.210668
46.936654 46.660746 46.383890 46.105951 45.827875 45.549509 45.271794 44.994554
44.718713 44.444072 44.171529 43.900859 43.632926 43.367477 43.105338 42.846226
42.590920 42.339109 42.091521 41.847815 41.608666 41.373706 41.143549 40.917805
40.697027 40.480800 40.269617 40.063043 39.861507 39.664560 39.472565 39.285063
39.102352 38.923965 38.750138 38.580401 38.414926 38.253245 38.095470 37.941138
37.790302 37.642510 37.497755 37.355603 37.215991 37.078504 36.943028 36.809171
36.676768 36.545457 36.415025 36.285143 36.155556
36.533333 36.685516 36.838018 36.991113 37.145159 37.300383 37.457179 37.615722
37.776435 37.939439 38.105184 38.273731 38.445552 38.620646 38.799502 38.982055
39.168803 39.359617 39.555000 39.754755 39.959386 40.168626 40.382975 40.602095
40.826478 41.055714 41.290281 41.529699 41.774426 42.023914 42.278599 42.537862
42.802115 43.070672 43.343915 43.621098 43.902571 44.187528 44.476286 44.767987
45.062915 45.360162 45.659982 45.961425 46.264715 46.568867 46.874077 47.179338
47.484819 47.789499 48.093525 48.395871 48.696668 48.994897 49.290675 49.582999
49.871981 50.156642 50.437091 50.712387 50.982639 51.246949 51.505432 51.757241
52.002496 52.240409 52.471107 52.693864 52.908816 53.115298 53.313454 53.502688
53.683144 53.854293 54.016282 54.168648 54.311533 54.444538 54.567799 54.680981
54.784207 54.877201 54.960071 55.032601 55.094877 55.146739 55.188253 55.219311
55.239954 55.250129 55.249848 55.239111 55.217905 55.186281 55.144199 55.091764
55.028911 54.955799 54.872341 54.778752 54.674924 54.561132 54.437253 54.303622
54.160102 54.007093 53.844451 53.672640 53.491515 53.301604 53.102762 52.895587
52.679937 52.456477 52.225070 51.986448 51.740480 51.487961 51.228769 50.963756
50.692806 50.416823 50.135698 49.850377 49.560753 49.267809 48.971435 48.672643
48.371312 48.068473 47.763995 47.458912 47.153077 46.847523 46.542080 46.237767
45.934389 45.632940 45.333199 45.036128 44.741474 44.450158 44.161896 43.877561
43.596836 43.320542 43.048328 42.780958 42.518049 42.260302 42.007306 41.759696
41.517035 41.279890 41.047800 40.821264 40.599802 40.383841 40.172886 39.967297
39.766565 39.570981 39.380032 39.193937 39.012184 38.834925 38.661650 38.492446
38.326812 38.164771 38.005838 37.849972 37.696706 37.545943 37.397239 37.250440
37.105132 36.961107 36.817985 36.675508 36.533333
36.911111 37.076967 37.243147 37.410022 37.577864 37.747085 37.917905 38.090769
38.265842 38.443598 38.624141 38.807970 38.995122 39.186120 39.380933 39.580095
39.783506 39.991710 40.204533 40.422523 40.645432 40.873804 41.107315 41.346503
41.590967 41.841231 42.096817 42.358232 42.624920 42.897365 43.174938 43.458094
43.746131 44.039473 44.337348 44.640148 44.947032 45.258357 45.573221 45.891944
46.213567 46.538376 46.865361 47.194774 47.525564 47.857948 48.190845 48.524442
48.857637 49.190589 49.522187 49.852569 50.180623 50.506474 50.829020 51.148376
51.463464 51.774393 52.080121 52.380757 52.675301 52.963869 53.245513 53.520354
53.787507 54.047103 54.298320 54.541299 54.775290 55.000441 55.216075 55.422347
55.618652 55.805148 55.981305 56.147279 56.302610 56.447451 56.581410 56.704628
56.816783 56.918000 57.008018 57.086945 57.154581 57.211010 57.256092 57.289882
57.312299 57.323370 57.323067 57.311391 57.288367 57.253967 57.208274 57.151228
57.082970 57.003415 56.912763 56.810905 56.698102 56.574225 56.439600 56.294084
56.138068 55.971400 55.794539 55.607329 55.410301 55.203297 54.986924 54.761024
54.526279 54.282539 54.030558 53.770194 53.502273 53.226662 52.944253 52.654924
52.359626 52.058246 51.751789 51.440145 51.124363 50.804336 50.481148 50.154686
49.826057 49.495140 49.163056 48.829666 48.496093 48.162178 47.829034 47.496475
47.165594 46.836176 46.509283 46.184666 45.863346 45.545041 45.230723 44.920073
44.614009 44.312174 44.015426 43.723372 43.436803 43.155293 42.879564 42.609158
42.344724 42.085778 41.832893 41.585561 41.344281 41.108523 40.878712 40.654304
40.435645 40.222184 40.014192 39.811114 39.613145 39.419732 39.231000 39.046401
38.865988 38.689228 38.516106 38.346104 38.179145 38.014734 37.852729 37.692665
37.534342 37.377327 37.221365 37.066062 36.911111
37.288889 37.468630 37.648749 37.829570 38.011517 38.194861 38.380064 38.567338
38.757182 38.949742 39.145546 39.344675 39.547681 39.754571 39.965916 40.181651
40.402358 40.627893 40.858846 41.094995 41.336927 41.584341 41.837819 42.096974
42.362379 42.633566 42.911086 43.194389 43.484006 43.779303 44.080783 44.387732
44.700621 45.018658 45.342277 45.670613 46.004061 46.341686 46.683844 47.029534
47.379072 47.731399 48.086793 48.444144 48.803692 49.164287 49.526135 49.888056
50.250224 50.611442 50.971859 51.330271 51.686806 52.040269 52.390774 52.737144
53.079486 53.416655 53.748757 54.074690 54.394563 54.707328 55.013102 55.310900
55.600848 55.882031 56.154588 56.417679 56.671453 56.915148 57.148925 57.372101
57.584842 57.786545 57.977380 58.156822 58.325038 58.481577 58.626601 58.759731
58.881114 58.990443 59.087845 59.173078 59.246248 59.307176 59.355940 59.392421
59.416668 59.428622 59.428298 59.415697 59.390800 59.353667 59.304247 59.242659
59.168823 59.082918 58.984837 58.874822 58.752744 58.618909 58.473172 58.315908
58.146958 57.966772 57.775182 57.572713 57.359196 57.135236 56.900664 56.656167
56.401582 56.137676 55.864297 55.582289 55.291515 54.992892 54.686294 54.372712
54.052028 53.725297 53.392409 53.054473 52.711384 52.364295 52.013098 51.658980
51.301826 50.942843 50.581902 50.220217 49.857641 49.495382 49.133269 48.772490
48.412845 48.055494 47.700200 47.348087 46.998877 46.653646 46.312077 45.975189
45.642626 45.315341 44.992938 44.676302 44.364997 44.059836 43.760346 43.467262
43.180080 42.899453 42.624850 42.356843 42.094875 41.839438 41.589956 41.346837
41.109494 40.878253 40.652517 40.432534 40.217706 40.008199 39.803421 39.603462
39.407737 39.216265 39.028476 38.844317 38.663240 38.485122 38.309445 38.136020
37.964362 37.794221 37.625149 37.456840 37.288889
37.666667 37.860543 38.054800 38.249869 38.446075 38.643895 38.843592 39.045685
39.250369 39.458199 39.669299 39.884252 40.103110 40.326476 40.554326 40.787277
41.025224 41.268796 41.517803 41.772876 42.033741 42.301023 42.574362 42.854373
43.140607 43.433663 43.733001 44.039199 44.351630 44.670841 44.996118 45.327977
45.665616 46.009515 46.358787 46.713873 47.073809 47.438990 47.808379 48.182329
48.559733 48.940902 49.324670 49.711303 50.099589 50.489752 50.880541 51.272144
51.663284 52.054118 52.443355 52.831127 53.216143 53.598518 53.976976 54.351619
54.721199 55.085815 55.444260 55.796635 56.141788 56.479827 56.809662 57.131415
57.444069 57.747759 58.041547 58.325584 58.599015 58.862004 59.113783 59.354527
59.583554 59.801046 60.006405 60.199816 60.380763 60.549425 60.705369 60.848760
60.979241 61.096962 61.201636 61.293390 61.372006 61.437584 61.489969 61.529232
61.555278 61.568145 61.567801 61.554244 61.527506 61.487550 61.434467 61.368187
61.288862 61.196393 61.090996 60.972544 60.841322 60.697180 60.540476 60.371042
60.189312 59.995108 59.788943 59.570635 59.340781 59.099198 58.846572 58.582725
58.308430 58.023521 57.728856 57.424284 57.110748 56.788112 56.457397 56.118484
55.772466 55.419235 55.059951 54.694514 54.324138 53.948724 53.569529 53.186451
52.800776 52.412391 52.022596 51.631262 51.239691 50.847726 50.456657 50.066299
49.677915 49.291283 48.907629 48.526691 48.149646 47.776190 47.407443 47.043053
46.684078 46.330121 45.982165 45.639771 45.303846 44.973908 44.650781 44.333947
44.024145 43.720822 43.424632 43.134991 42.852466 42.576450 42.307421 42.044754
41.788838 41.539039 41.295657 41.058053 40.826442 40.600185 40.379415 40.163499
39.952490 39.745768 39.543308 39.344510 39.149275 38.957029 38.767600 38.580448
38.395334 38.211753 38.029406 37.847830 37.666667
38.044444 38.252690 38.461374 38.670876 38.881684 39.094118 39.308711 39.525714
39.745701 39.968851 40.195771 40.426562 40.661858 40.901681 41.146683 41.396802
41.652705 41.914240 42.182080 42.455985 42.736625 43.023668 43.317778 43.618526
43.926562 44.241363 44.563557 44.892526 45.228869 45.571875 45.922108 46.278763
46.642368 47.012026 47.388221 47.769970 48.157710 48.550376 48.948357 49.350512
49.757180 50.167153 50.580721 50.996615 51.415083 51.834806 52.255989 52.677278
53.098840 53.519300 53.938793 54.355937 54.770844 55.182140 55.589920 55.992835
56.390972 56.783019 57.169065 57.547848 57.919467 58.282723 58.637727 58.983355
59.319736 59.645829 59.961779 60.266637 60.560564 60.842702 61.113231 61.371385
61.617354 61.850467 62.070919 62.278129 62.472292 62.652914 62.820181 62.973682