<?xml version="1.0"?>
<VTKFile type="ImageData" version="0.1" byte_order="LittleEndian">
  <ImageData WholeExtent="0 180 0 180 0 0" Origin="0.0 0.0 0.0" Spacing="0.05 0.05 1">
    <Piece Extent="0 180 0 180 0 0">
      <PointData Scalars="Temperature">
        <DataArray type="Float32" Name="Temperature" format="ascii">
32.000000 32.000000 32.000000 32.000000 32.000000 32.000000 32.000000 32.000000 32.000000 32.000000 32.000000 32.000000 32.000000 32.000000 32.000000 32.000000 32.000000 32.000000 32.000000 32.000000 32.000000 32.000000 32.000000 32.000000 32.000000 32.000000 32.000000 32.000000 32.000000 32.000000 32.000000 32.000000 32.000000 32.000000 32.000000 32.000000 32.000000 32.000000 32.000000 32.000000 32.000000 32.000000 32.000000 32.000000 32.000000 32.000000 32.000000 32.000000 32.000000 32.000000 32.000000 32.000000 32.000000 32.000000 32.000000 32.000000 32.000000 32.000000 32.000000 32.000000 32.000000 32.000000 32.000000 32.000000 32.000000 32.000000 32.000000 32.000000 32.000000 32.000000 32.000000 32.000000 32.000000 32.000000 32.000000 32.000000 32.000000 32.000000 32.000000 32.000000 32.000000 32.000000 32.000000 32.000000 32.000000 32.000000 32.000000 32.000000 32.000000 32.000000 32.000000 32.000000 32.000000 32.000000 32.000000 32.000000 32.000000 32.000000 32.000000 32.000000 32.000000 32.000000 32.000000 32.000000 32.000000 32.000000 32.000000 32.000000 32.000000 32.000000 32.000000 32.000000 32.000000 32.000000 32.000000 32.000000 32.000000 32.000000 32.000000 32.000000 32.000000 32.000000 32.000000 32.000000 32.000000 32.000000 32.000000 32.000000 32.000000 32.000000 32.000000 32.000000 32.000000 32.000000 32.000000 32.000000 32.000000 32.000000 32.000000 32.000000 32.000000 32.000000 32.000000 32.000000 32.000000 32.000000 32.000000 32.000000 32.000000 32.000000 32.000000 32.000000 32.000000 32.000000 32.000000 32.000000 32.000000 32.000000 32.000000 32.000000 32.000000 32.000000 32.000000 32.000000 32.000000 32.000000 32.000000 32.000000 32.000000 32.000000 32.000000 32.000000 32.000000 32.000000 32.000000 32.000000 32.000000 32.000000 32.000000 32.000000 32.000000
32.377778 32.396462 32.415163 32.433901 32.452692 32.471556 32.490506 32.509566 32.528744 32.548064 32.567534 32.587178 32.606999 32.627022 32.647248 32.667702 32.688379 32.709306 32.730473 32.751907 32.773595 32.795563 32.817792 32.840308 32.863088 32.886157 32.909488 32.933104 32.956974 32.981118 33.005502 33.030144 33.055007 33.080105 33.105398 33.130898 33.156561 33.182397 33.208358 33.234453 33.260630 33.286896 33.313197 33.339537 33.365860 33.392169 33.418406 33.444572 33.470607 33.496513 33.522227 33.547751 33.573024 33.598043 33.622750 33.647143 33.671163 33.694808 33.718022 33.740803 33.763096 33.784901 33.806164 33.826886 33.847018 33.866560 33.885467 33.903739 33.921335 33.938257 33.954466 33.969965 33.984721 33.998736 34.011979 34.024455 34.036138 34.047030 34.057111 34.066382 34.074826 34.082446 34.089227 34.095172 34.100270 34.104522 34.107922 34.110470 34.112162 34.112998 34.112978 34.112100 34.110367 34.107778 34.104337 34.100043 34.094905 34.088919 34.082097 34.074437 34.065953 34.056642 34.046522 34.035591 34.023870 34.011356 33.998075 33.984024 33.969233 33.953699 33.937456 33.920503 33.902876 33.884575 33.865641 33.846074 33.825919 33.805176 33.783894 33.762074 33.739769 33.716979 33.693760 33.670114 33.646097 33.621711 33.597017 33.572015 33.546766 33.521272 33.495593 33.469730 33.443745 33.417636 33.391465 33.365230 33.338990 33.312742 33.286544 33.260391 33.234338 33.208377 33.182564 33.156886 33.131396 33.106081 33.080988 33.056103 33.031469 33.007071 32.982946 32.959078 32.935501 32.912195 32.889192 32.866469 32.844053 32.821920 32.800094 32.778549 32.757304 32.736332 32.715648 32.695225 32.675074 32.655167 32.635510 32.616076 32.596867 32.577856 32.559042 32.540397 32.521918 32.503578 32.485369 32.467266 32.449258 32.431322 32.413443 32.395601 32.377778
32.755556 32.792937 32.830355 32.867843 32.905443 32.943181 32.981102 33.019229 33.057608 33.096255 33.135221 33.174513 33.214184 33.254234 33.294718 33.335627 33.377017 33.418871 33.461245 33.504114 33.547531 33.591466 33.635969 33.681000 33.726609 33.772747 33.819460 33.866691 33.914484 33.962773 34.011597 34.060883 34.110667 34.160866 34.211512 34.262515 34.313903 34.365579 34.417566 34.469760 34.522180 34.574718 34.627386 34.680073 34.732787 34.785411 34.837953 34.890291 34.942430 34.994247 35.045744 35.096798 35.147408 35.197454 35.246932 35.295723 35.343824 35.391120 35.437607 35.483172 35.527814 35.571425 35.614004 35.655450 35.695762 35.734847 35.772704 35.809248 35.844481 35.878322 35.910777 35.941773 35.971316 35.999342 36.025858 36.050807 36.074196 36.095977 36.116157 36.134696 36.151600 36.166837 36.180412 36.192299 36.202504 36.211008 36.217813 36.222908 36.226295 36.227967 36.227926 36.226171 36.222702 36.217525 36.210637 36.202052 36.191765 36.179796 36.166140 36.150823 36.133838 36.115220 36.094961 36.073102 36.049636 36.024612 35.998022 35.969924 35.940310 35.909244 35.876723 35.842817 35.807524 35.770922 35.733010 35.693875 35.653516 35.612029 35.569414 35.525772 35.481106 35.435523 35.389026 35.341728 35.293632 35.244856 35.195403 35.145393 35.094830 35.043835 34.992409 34.940678 34.888639 34.836415 34.784005 34.731529 34.678981 34.626480 34.574016 34.521704 34.469531 34.417607 34.365914 34.314557 34.263513 34.212881 34.162634 34.112862 34.063536 34.014738 33.966433 33.918696 33.871489 33.824878 33.778820 33.733375 33.688495 33.644231 33.600533 33.557444 33.514911 33.472968 33.431561 33.390716 33.350377 33.310562 33.271215 33.232345 33.193897 33.155873 33.118217 33.080924 33.043941 33.007255 32.970815 32.934602 32.898567 32.862686 32.826912 32.791216 32.755556
33.133333 33.189441 33.245601 33.301874 33.358302 33.414953 33.471863 33.529100 33.586694 33.644718 33.703190 33.762186 33.821714 33.881853 33.942599 34.004032 34.066137 34.128993 34.192574 34.256958 34.322105 34.388093 34.454869 34.522508 34.590945 34.660250 34.730344 34.801296 34.873012 34.945555 35.018821 35.092866 35.167573 35.242992 35.318996 35.395627 35.472746 35.550390 35.628410 35.706835 35.785507 35.864450 35.943497 36.022666 36.101782 36.180859 36.259718 36.338365 36.416620 36.494485 36.571776 36.648494 36.724455 36.799656 36.873916 36.947232 37.019425 37.090492 37.160260 37.228724 37.295722 37.361248 37.425147 37.487417 37.547912 37.606631 37.663440 37.718339 37.771206 37.822044 37.870740 37.917301 37.961626 38.003723 38.043503 38.080976 38.116064 38.148778 38.179051 38.206894 38.232251 38.255134 38.275497 38.293349 38.308656 38.321425 38.331633 38.339284 38.344364 38.346875 38.346814 38.344179 38.338975 38.331201 38.320870 38.307978 38.292548 38.274574 38.254090 38.231086 38.205609 38.177647 38.147256 38.114426 38.079223 38.041636 38.001745 37.959539 37.915108 37.868444 37.819648 37.768714 37.715756 37.660769 37.603879 37.545084 37.484520 37.422188 37.358235 37.292663 37.225629 37.157138 37.087354 37.016284 36.944100 36.870807 36.796584 36.721437 36.645546 36.568917 36.491733 36.413996 36.335891 36.257416 36.178755 36.099900 36.021033 35.942142 35.863403 35.784799 35.706498 35.628478 35.550899 35.473733 35.397131 35.321056 35.245651 35.170873 35.096852 35.023539 34.951053 34.879338 34.808501 34.738480 34.669370 34.601103 34.533761 34.467272 34.401705 34.336985 34.273166 34.210171 34.148043 34.086700 34.026173 33.966381 33.907342 33.848973 33.791282 33.734187 33.677683 33.621690 33.566193 33.511116 33.456432 33.402068 33.347989 33.294127 33.240437 33.186856 33.133333
33.511111 33.585986 33.660935 33.736025 33.811339 33.886930 33.962890 34.039261 34.116140 34.193558 34.271615 34.350328 34.429801 34.510037 34.591143 34.673104 34.756030 34.839891 34.924794 35.010694 35.097695 35.185737 35.274920 35.365166 35.456573 35.549044 35.642672 35.737343 35.833143 35.929942 36.027818 36.126624 36.226431 36.327076 36.428620 36.530886 36.633926 36.737548 36.841796 36.946464 37.051588 37.156951 37.262579 37.368246 37.473970 37.579517 37.684898 37.789874 37.894449 37.998381 38.101669 38.204070 38.305579 38.405954 38.505190 38.603046 38.699517 38.794368 38.887594 38.978970 39.068489 39.155939 39.241314 39.324413 39.405235 39.483591 39.559483 39.632737 39.703358 39.771187 39.836232 39.898350 39.957552 40.013711 40.066840 40.116826 40.163684 40.207319 40.247745 40.284880 40.318740 40.349258 40.376447 40.400255 40.420693 40.437723 40.451351 40.461555 40.468337 40.471686 40.471604 40.468090 40.461143 40.450776 40.436984 40.419791 40.399190 40.375220 40.347869 40.317190 40.283170 40.245876 40.205294 40.161504 40.114492 40.064355 40.011079 39.954776 39.895432 39.833176 39.767998 39.700042 39.629299 39.555929 39.479928 39.401472 39.320557 39.237376 39.151928 39.064418 38.974850 38.883439 38.790192 38.695336 38.598878 38.501052 38.401867 38.301563 38.200148 38.097866 37.994720 37.890960 37.786584 37.681839 37.576720 37.471470 37.366079 37.260783 37.155564 37.050654 36.946025 36.841898 36.738237 36.635254 36.532902 36.431380 36.330633 36.230845 36.131952 36.034123 35.937287 35.841594 35.746966 35.653537 35.561221 35.470136 35.380188 35.291478 35.203906 35.117558 35.032327 34.948282 34.865315 34.783475 34.702653 34.622882 34.544052 34.466180 34.389156 34.312981 34.237548 34.162843 34.088760 34.015273 33.942281 33.869744 33.797565 33.725693 33.654038 33.582538 33.511111
33.888889 33.982589 34.076377 34.170352 34.264590 34.359200 34.454243 34.549836 34.646027 34.742938 34.840599 34.939140 35.038572 35.139028 35.240502 35.343128 35.446880 35.551893 35.658120 35.765695 35.874551 35.984817 36.096406 36.209443 36.323819 36.439653 36.556813 36.675411 36.795296 36.916569 37.039058 37.162855 37.287767 37.413877 37.540970 37.669119 37.798092 37.927948 38.058439 38.189614 38.321208 38.453259 38.585489 38.717926 38.850281 38.982572 39.114501 39.246078 39.377001 39.507270 39.636582 39.764932 39.892015 40.017825 40.142059 40.264708 40.385477 40.504355 40.621057 40.735572 40.847628 40.957216 41.064077 41.168206 41.269359 41.367537 41.462512 41.554289 41.642659 41.727631 41.809017 41.886828 41.960895 42.031235 42.097697 42.160299 42.218913 42.273556 42.324119 42.370619 42.412967 42.451178 42.485181 42.514989 42.540547 42.561867 42.578910 42.591684 42.600165 42.604358 42.604256 42.599857 42.591171 42.578193 42.560946 42.539422 42.513661 42.483650 42.449446 42.411034 42.368487 42.321789 42.271031 42.216194 42.157389 42.094599 42.027952 41.957432 41.883188 41.805206 41.723655 41.638523 41.550001 41.458080 41.362969 41.264666 41.163397 41.059165 40.952214 40.842550 40.730434 40.615875 40.499148 40.380264 40.259511 40.136900 40.012730 39.887009 39.760043 39.631841 39.502709 39.372653 39.241981 39.110691 38.979091 38.847171 38.715233 38.583259 38.451542 38.320056 38.189082 38.058583 37.928828 37.799769 37.671659 37.544439 37.418344 37.293304 37.169538 37.046961 36.925774 36.805883 36.687466 36.570420 36.454902 36.340801 36.228252 36.117134 36.007563 35.899412 35.792775 35.687518 35.583714 35.481227 35.380110 35.280223 35.181599 35.084098 34.987732 34.892364 34.797988 34.704468 34.611780 34.519793 34.428466 34.337675 34.247363 34.157411 34.067750 33.978271 33.888889
34.266667 34.379258 34.491962 34.604879 34.718132 34.831805 34.946035 35.060887 35.176505 35.292937 35.410334 35.528722 35.648259 35.768949 35.890952 36.014250 36.139005 36.265173 36.392916 36.522167 36.653083 36.785573 36.919790 37.055616 37.193198 37.332392 37.473337 37.615862 37.760097 37.905847 38.053228 38.202021 38.352331 38.503914 38.656862 38.810906 38.966127 39.122234 39.279293 39.436995 39.595391 39.754155 39.913326 40.072562 40.231889 40.390954 40.549774 40.707986 40.865596 41.022237 41.177909 41.332242 41.485229 41.636505 41.786058 41.933529 42.078904 42.221834 42.362305 42.499981 42.634851 42.766592 42.895198 43.020366 43.142092 43.260094 43.374373 43.484669 43.590989 43.693096 43.791001 43.884491 43.973582 44.058085 44.138019 44.213219 44.283705 44.349337 44.410135 44.465982 44.516898 44.562785 44.603664 44.639458 44.670183 44.695782 44.716270 44.731607 44.741803 44.746838 44.746715 44.741435 44.730994 44.715412 44.694680 44.668836 44.637868 44.601832 44.560712 44.514585 44.463431 44.407348 44.346315 44.280452 44.209737 44.134313 44.054158 43.969438 43.880136 43.786441 43.688337 43.586040 43.479538 43.369069 43.254628 43.136476 43.014612 42.889321 42.760607 42.628775 42.493833 42.356105 42.215603 42.072667 41.927311 41.779887 41.630409 41.479241 41.326395 41.172240 41.016784 40.860400 40.703089 40.545224 40.386799 40.228180 40.069352 39.910673 39.752118 39.594033 39.436381 39.279492 39.123316 38.968167 38.813981 38.661053 38.509304 38.359007 38.210071 38.062746 37.916926 37.772838 37.630364 37.489705 37.350731 37.213619 37.078229 36.944711 36.812916 36.682970 36.554715 36.428251 36.303416 36.180285 36.058693 35.938688 35.820105 35.702969 35.587113 35.472540 35.359086 35.246732 35.135317 35.024803 34.915035 34.805953 34.697413 34.589336 34.481588 34.374072 34.266667
34.644444 34.776013 34.907706 35.039664 35.171992 35.304845 35.438309 35.572550 35.707634 35.843735 35.980895 36.119297 36.258958 36.400064 36.542609 36.686780 36.832543 36.980086 37.129346 37.280511 37.433487 37.588457 37.745300 37.904189 38.064974 38.227821 38.392548 38.559310 38.727897 38.898449 39.070727 39.244859 39.420576 39.597990 39.776804 39.957116 40.138602 40.321345 40.504995 40.689618 40.874844 41.060724 41.246867 41.433309 41.619645 41.805897 41.991646 42.176903 42.361242 42.544662 42.726735 42.907451 43.086383 43.263515 43.438425 43.611095 43.781111 43.948454 44.112724 44.273903 44.431608 44.585826 44.736192 44.882699 45.025004 45.163106 45.296689 45.425756 45.550018 45.669486 45.783897 45.893268 45.997364 46.096207 46.189591 46.277540 46.359876 46.436625 46.507636 46.572934 46.632396 46.686044 46.733780 46.775624 46.811500 46.841425 46.865346 46.883274 46.895178 46.901064 46.900922 46.894751 46.882562 46.864348 46.840144 46.809935 46.773776 46.731650 46.683635 46.629707 46.569969 46.504395 46.433113 46.356094 46.273493 46.185282 46.091641 45.992547 45.888205 45.778595 45.663954 45.544264 45.419790 45.290522 45.156751 45.018473 44.876008 44.729358 44.578867 44.424543 44.266755 44.105514 43.941210 43.773859 43.603867 43.431251 43.256431 43.079423 42.900658 42.720148 42.538328 42.355207 42.171220 41.986367 41.801079 41.615348 41.429596 41.243803 41.058380 40.873293 40.688936 40.505260 40.322643 40.141019 39.960742 39.781732 39.604319 39.428405 39.254295 39.081875 38.911423 38.742808 38.576281 38.411696 38.249273 38.088855 37.930633 37.774436 37.620426 37.468423 37.318558 37.170646 37.024786 36.880787 36.738721 36.598394 36.459847 36.322888 36.187531 36.053583 35.921034 35.789693 35.659525 35.530347 35.402100 35.274609 35.147793 35.021486 34.895589 34.769948 34.644444
35.022222 35.172859 35.323649 35.474723 35.626251 35.778345 35.931187 36.084866 36.239577 36.395384 36.552489 36.710930 36.870917 37.032458 37.195766 37.360821 37.527836 37.696758 37.867802 38.040880 38.216203 38.393650 38.573426 38.755375 38.939693 39.126190 39.315049 39.506048 39.699355 39.894714 40.092278 40.291756 40.493286 40.696544 40.901649 41.108248 41.316440 41.525842 41.736536 41.948112 42.160633 42.373664 42.587253 42.800944 43.014766 43.228249 43.441407 43.653757 43.865302 44.075552 44.284497 44.491647 44.696984 44.900021 45.100736 45.298649 45.493736 45.685530 45.874010 46.058723 46.239652 46.416369 46.588858 46.756716 46.919937 47.078144 47.231337 47.379171 47.521653 47.658470 47.789635 47.914867 48.034188 48.147347 48.254371 48.355042 48.449389 48.537227 48.618585 48.693308 48.761425 48.822809 48.877488 48.925360 48.966451 49.000685 49.028081 49.048591 49.062224 49.068958 49.068796 49.061738 49.047780 49.026947 48.999227 48.964670 48.923258 48.875064 48.820067 48.758365 48.689933 48.614897 48.533229 48.445085 48.350435 48.249466 48.142149 48.028704 47.909103 47.783600 47.652172 47.515103 47.372379 47.224316 47.070908 46.912502 46.749099 46.581078 46.408446 46.231610 46.050585 45.865803 45.677285 45.485483 45.290421 45.092572 44.891959 44.689067 44.483918 44.277007 44.068350 43.858445 43.647300 43.435413 43.222781 43.009895 42.796740 42.583794 42.371028 42.158904 41.947376 41.736886 41.527371 41.319250 41.112440 40.907334 40.703829 40.502289 40.302595 40.105078 39.909601 39.716462 39.525507 39.337003 39.150777 38.967063 38.785674 38.606809 38.430271 38.256223 38.084457 37.915104 37.747948 37.583086 37.420297 37.259646 37.100910 36.944120 36.789055 36.635716 36.483884 36.333531 36.184443 36.036565 35.889692 35.743741 35.598519 35.453920 35.309762 35.165918 35.022222
35.400000 35.569818 35.739797 35.910120 36.080924 36.252410 36.424692 36.597982 36.772368 36.948075 37.125160 37.303858 37.484195 37.666411 37.850498 38.036700 38.224975 38.415565 38.608393 38.803698 39.001366 39.201628 39.404333 39.609704 39.817550 40.028084 40.241073 40.456718 40.674747 40.895344 41.118200 41.343478 41.570834 41.800410 42.031825 42.265203 42.500126 42.736698 42.974469 43.213521 43.453377 43.694096 43.935176 44.176658 44.418019 44.659280 44.899903 45.139895 45.378705 45.616326 45.852203 46.086320 46.318121 46.547583 46.774157 46.997816 47.218023 47.434751 47.647480 47.856185 48.060370 48.260013 48.454647 48.644256 48.828403 49.007081 49.179885 49.346818 49.507511 49.661974 49.809876 49.951234 50.085754 50.213460 50.334094 50.447686 50.554012 50.653107 50.744779 50.829064 50.905806 50.975036 51.036629 51.090615 51.136898 51.175500 51.206356 51.229482 51.244837 51.252430 51.252248 51.244292 51.228574 51.205085 51.173868 51.134903 51.088261 51.033916 50.971965 50.902379 50.825285 50.740649 50.648630 50.549192 50.442527 50.328601 50.207640 50.079612 49.944779 49.803116 49.654921 49.500174 49.339211 49.172021 48.998977 48.820075 48.635725 48.445933 48.251140 48.051362 47.847071 47.638289 47.425517 47.208781 46.988604 46.765016 46.538558 46.309259 46.077672 45.843822 45.608271 45.371037 45.132680 44.893209 44.653180 44.412589 44.171982 43.931337 43.691184 43.451485 43.212751 42.974920 42.738479 42.503348 42.269983 42.038283 41.808674 41.581030 41.355746 41.132674 40.912171 40.694072 40.478696 40.265857 40.055838 39.848436 39.643893 39.441993 39.242938 39.046502 38.852846 38.661734 38.473290 38.287270 38.103762 37.922517 37.743587 37.566720 37.391935 37.218982 37.047844 36.878278 36.710235 36.543479 36.377931 36.213365 36.049674 35.886647 35.724149 35.561986 35.400000
35.777778 35.966890 36.156194 36.345860 36.536098 36.727053 36.918954 37.111915 37.306180 37.501832 37.699127 37.898114 38.099056 38.301967 38.507115 38.714476 38.924320 39.136582 39.351531 39.569061 39.789437 40.012510 40.238535 40.467324 40.699116 40.933682 41.171247 41.411536 41.654760 41.900598 42.149242 42.400331 42.654032 42.909944 43.168212 43.428394 43.690612 43.954387 44.219816 44.486387 44.754173 45.022629 45.291808 45.561139 45.830651 46.099755 46.368459 46.636159 46.902847 47.167909 47.431325 47.692477 47.951337 48.207289 48.460300 48.709765 48.955647 49.197360 49.434868 49.667607 49.895546 50.118149 50.335391 50.546771 50.752272 50.951428 51.144234 51.330262 51.509518 51.681613 51.846565 52.004025 52.154019 52.296241 52.430723 52.557200 52.675708 52.786021 52.888177 52.981987 53.067490 53.144531 53.213147 53.273217 53.324770 53.367719 53.402087 53.427814 53.444917 53.453365 53.453164 53.444315 53.426811 53.400683 53.365915 53.322567 53.270615 53.210149 53.141138 53.063703 52.977810 52.883612 52.781072 52.670380 52.551497 52.424652 52.289806 52.147229 51.996888 51.839092 51.673815 51.501407 51.321852 51.135541 50.942468 50.743065 50.537338 50.325757 50.108337 49.885587 49.657530 49.424708 49.187152 48.945431 48.699583 48.450198 48.197316 47.941546 47.682924 47.422071 47.159017 46.894387 46.628201 46.361082 46.093038 45.824682 45.556006 45.287608 45.019460 44.752140 44.485599 44.220390 43.956438 43.694268 43.433782 43.175469 42.919207 42.665449 42.414048 42.165418 41.919388 41.676332 41.436057 41.198895 40.964630 40.733553 40.505432 40.280511 40.058544 39.839732 39.623817 39.410957 39.200883 38.993713 38.789170 38.587332 38.387919 38.190967 37.996200 37.803614 37.612935 37.424126 37.236917 37.051237 36.866828 36.683585 36.501264 36.319729 36.138752 35.958171 35.777778
36.155556 36.364098 36.572842 36.782009 36.991775 37.202383 37.413977 37.626820 37.841021 38.056857 38.274402 38.493944 38.715519 38.939421 39.165646 39.394491 39.625910 39.860199 40.097269 40.337411 40.580490 40.826791 41.076130 41.328782 41.584516 41.843590 42.105727 42.371168 42.639586 42.911202 43.185642 43.463103 43.743166 44.026002 44.311147 44.598746 44.888293 45.179906 45.473037 45.767779 46.063549 46.360410 46.657750 46.955607 47.253342 47.550970 47.847832 48.143924 48.438570 48.731752 49.022787 49.311643 49.597640 49.880734 50.160255 50.436156 50.707779 50.975080 51.237423 51.494765 51.746502 51.992598 52.232480 52.466124 52.692997 52.913084 53.125895 53.331428 53.529235 53.719330 53.901308 54.075194 54.240631 54.397651 54.545943 54.685546 54.816193 54.937927 55.050523 55.154025 55.248248 55.333234 55.408835 55.475090 55.531884 55.579250 55.617108 55.645480 55.664320 55.673637 55.673418 55.663661 55.644383 55.615573 55.577277 55.529475 55.472245 55.405556 55.329523 55.244107 55.149457 55.045531 54.932516 54.810366 54.679309 54.539301 54.390613 54.233204 54.067389 53.893134 53.710800 53.520362 53.322228 53.116384 52.903283 52.682925 52.455806 52.221940 51.981865 51.735607 51.483743 51.226308 50.963915 50.696605 50.425021 50.149209 49.869832 49.586937 49.301205 49.012677 48.722042 48.429335 48.135244 47.839791 47.543658 47.246851 46.950040 46.653208 46.357005 46.061394 45.766998 45.473753 45.182252 44.892404 44.604768 44.319225 44.036293 43.755825 43.478300 43.203543 42.931988 42.663434 42.398268 42.136267 41.877771 41.622535 41.370851 41.122456 40.877593 40.635984 40.397825 40.162824 39.931132 39.702449 39.476877 39.254113 39.034215 38.816876 38.602113 38.389621 38.179375 37.971076 37.764662 37.559841 37.356513 37.154402 36.953374 36.753166 36.553614 36.354475 36.155556
36.533333 36.761442 36.989784 37.218565 37.448044 37.678395 37.909897 38.142691 38.377071 38.613142 38.851213 39.091346 39.333859 39.578774 39.826413 40.076753 40.330118 40.586437 40.846031 41.108781 41.375002 41.644522 41.917647 42.194154 42.474333 42.757910 43.045157 43.335747 43.629930 43.927327 44.228164 44.532011 44.839066 45.148849 45.461530 45.776580 46.094139 46.413634 46.735174 47.058144 47.382622 47.707955 48.034195 48.360656 48.687361 49.013600 49.339371 49.663945 49.987300 50.308694 50.628090 50.944743 51.258602 51.568928 51.875663 52.178081 52.476124 52.769084 53.056906 53.338911 53.615052 53.884685 54.147771 54.403708 54.652471 54.893501 55.126789 55.351822 55.568606 55.776680 55.976062 56.166342 56.347551 56.519328 56.681713 56.834396 56.977422 57.110528 57.233764 57.346908 57.450013 57.542898 57.625610 57.698010 57.760139 57.811892 57.853302 57.884300 57.904906 57.915087 57.914849 57.904193 57.883111 57.851638 57.809754 57.757527 57.694927 57.622057 57.538876 57.445525 57.341957 57.228353 57.104662 56.971106 56.827635 56.674515 56.511699 56.339501 56.157880 55.967201 55.767432 55.558986 55.341846 55.116477 54.882873 54.641550 54.392519 54.136343 53.873047 53.603240 53.326960 53.044856 52.756979 52.464012 52.166012 51.863693 51.557113 51.247008 50.933436 50.617145 50.298185 49.977311 49.654561 49.330687 49.005711 48.680372 48.354673 48.029335 47.704335 47.380370 47.057389 46.736058 46.416297 46.098733 45.783258 45.470458 45.160191 44.853000 44.548713 44.247826 43.950136 43.656089 43.365455 43.078629 42.795356 42.515979 42.240220 41.968370 41.700132 41.435744 41.174896 40.917772 40.664050 40.413865 40.166886 39.923199 39.682470 39.444737 39.209665 38.977247 38.747152 38.519330 38.293457 38.069443 37.846976 37.625925 37.405997 37.187024 36.968730 36.750918 36.533333
36.911111 37.158942 37.407014 37.655595 37.904894 38.155203 38.406697 38.659688 38.914312 39.170897 39.429536 39.690573 39.954053 40.220328 40.489398 40.761615 41.036931 41.315697 41.597813 41.883625 42.172979 42.466210 42.763110 43.064001 43.368616 43.677261 43.989612 44.305951 44.625899 44.949713 45.276956 45.607857 45.941924 46.279354 46.619602 46.962833 47.308449 47.656583 48.006589 48.358565 48.711823 49.066426 49.421649 49.777524 50.133293 50.488960 50.843742 51.197618 51.549787 51.900208 52.248072 52.593323 52.935150 53.273489 53.607538 53.937229 54.261779 54.581119 54.894496 55.201847 55.502452 55.796259 56.082591 56.361411 56.632087 56.894598 57.148367 57.393386 57.629133 57.855620 58.072377 58.279432 58.476371 58.663234 58.839662 59.005705 59.161055 59.305768 59.439585 59.562565 59.674496 59.775433 59.865208 59.943871 60.011293 60.067515 60.112449 60.146121 60.168480 60.179541 60.179285 60.167713 60.144843 60.110659 60.065216 60.008485 59.940555 59.861386 59.771108 59.669669 59.557240 59.433766 59.299458 59.154260 58.998432 58.831917 58.655026 58.467709 58.270327 58.062842 57.845669 57.618781 57.382652 57.137269 56.883161 56.620334 56.349370 56.070292 55.783735 55.489739 55.188986 54.881530 54.568096 54.248747 53.924246 53.594662 53.260785 52.922685 52.581171 52.236311 51.888923 51.539065 51.187555 50.834436 50.480519 50.125826 49.771152 49.416492 49.062617 48.709496 48.357866 48.007664 47.659591 47.313550 46.970198 46.629405 46.291780 45.957159 45.626100 45.298406 44.974583 44.654399 44.338308 44.026048 43.718016 43.413924 43.114112 42.818271 42.526681 42.239015 41.955499 41.675788 41.400053 41.127939 40.859563 40.594563 40.333004 40.074520 39.819127 39.566462 39.316491 39.068858 38.823483 38.580021 38.338350 38.098137 37.859222 37.621292 37.384146 37.147497 36.911111
37.288889 37.556596 37.824579 38.093085 38.362417 38.632784 38.904516 39.177780 39.452927 39.730081 40.009607 40.291583 40.576383 40.864039 41.154929 41.449032 41.746727 42.047940 42.353045 42.661911 42.974906 43.291837 43.613059 43.938321 44.267959 44.601661 44.939742 45.281827 45.628205 45.978440 46.332791 46.690762 47.052578 47.417684 47.786271 48.157725 48.532201 48.909031 49.288333 49.669389 50.052279 50.436239 50.821315 51.206705 51.592421 51.977628 52.362308 52.745605 53.127474 53.507045 53.884254 54.258224 54.628879 54.995348 55.357545 55.714616 56.066474 56.412290 56.751983 57.084756 57.410540 57.728580 58.038822 58.340561 58.633759 58.917768 59.192568 59.457569 59.712772 59.957647 60.192214 60.416004 60.629052 60.830949 61.021744 61.201086 61.369034 61.525288 61.669915 61.802666 61.923605 62.032535 62.129513 62.214387 62.287207 62.347860 62.396385 62.432708 62.456853 62.468785 62.468512 62.456034 62.431341 62.394473 62.345403 62.284207 62.210844 62.125430 62.027913 61.918448 61.796975 61.663696 61.518546 61.361773 61.193313 61.013467 60.822176 60.619794 60.406271 60.182022 59.947009 59.701706 59.446093 59.180704 58.905539 58.621194 58.327687 58.025672 57.715190 57.396949 57.071007 56.738122 56.398368 56.052546 55.700740 55.343787 54.981774 54.615566 54.245249 53.871702 53.495005 53.116044 52.734883 52.352406 51.968656 51.584503 51.199965 50.815889 50.432264 50.049906 49.668768 49.289630 48.912410 48.537840 48.165803 47.796982 47.431221 47.069150 46.710574 46.356068 46.005401 45.659088 45.316866 44.979189 44.645762 44.316978 43.992517 43.672710 43.357212 43.046294 42.739593 42.437318 42.139093 41.845068 41.554857 41.268552 40.985762 40.706525 40.430449 40.157519 39.887346 39.619867 39.354700 39.091735 38.830604 38.571151 38.313028 38.056037 37.799851 37.544235 37.288889
37.666667 37.954425 38.242466 38.531104 38.820586 39.111254 39.403314 39.697132 39.992868 40.290908 40.591365 40.894636 41.200784 41.510215 41.822938 42.139361 42.459437 42.783573 43.111660 43.444099 43.780720 44.121912 44.467442 44.817679 45.172327 45.531734 45.895536 46.264056 46.636863 47.014250 47.395720 47.781531 48.171121 48.564711 48.961676 49.362198 49.765590 50.171993 50.580664 50.991703 51.404316 51.818561 52.233597 52.649446 53.065228 53.480928 53.895638 54.309312 54.721020 55.130691 55.537384 55.941011 56.340631 56.736143 57.126617 57.511951 57.891234 58.264367 58.630475 58.989465 59.340506 59.683521 60.017727 60.343068 60.658820 60.964946 61.260785 61.546325 61.820968 62.084725 62.337066 62.578021 62.807125 63.024428 63.229526 63.422482 63.602955 63.771014 63.926375 64.069110 64.198987 64.316078 64.420198 64.511410 64.589576 64.654748 64.706829 64.745855 64.771769 64.784590 64.784300 64.770898 64.744404 64.704798 64.652139 64.586389 64.507647 64.415860 64.311168 64.193508 64.063065 63.919767 63.763850 63.595240 63.414223 63.220730 63.015105 62.797286 62.567678 62.326233 62.073418 61.809205 61.534126 61.248173 60.951947 60.645461 60.329383 60.003748 59.669287 59.326058 58.974850 58.615741 58.249571 57.876431 57.497207 57.112000 56.721727 56.326493 55.927238 55.524064 55.117923 54.708904 54.297961 53.885163 53.471455 53.056882 52.642368 52.227926 51.814451 51.401921 50.991193 50.582208 50.175774 49.771794 49.371024 48.973325 48.579397 48.189059 47.802953 47.420855 47.043346 46.670164 46.301824 45.938029 45.579230 45.225097 44.876015 44.531627 44.192251 43.857509 43.527652 43.202285 42.881594 42.565171 42.253141 41.945086 41.641071 41.340676 41.043908 40.750348 40.459948 40.172296 39.887292 39.604535 39.323877 39.044932 38.767507 38.491239 38.215891 37.941125 37.666667