<?xml version="1.0"?>
<VTKFile type="ImageData" version="0.1" byte_order="LittleEndian">
  <ImageData WholeExtent="0 180 0 180 0 0" Origin="0.0 0.0 0.0" Spacing="0.05 0.05 1">
    <Piece Extent="0 180 0 180 0 0">
      <PointData Scalars="Temperature">
        <DataArray type="Float32" Name="Temperature" format="ascii">
32.000000 32.000000 32.000000 32.000000 32.000000 32.000000 32.000000 32.000000 32.000000 32.000000 32.000000 32.000000 32.000000 32.000000 32.000000 32.000000 32.000000 32.000000 32.000000 32.000000 32.000000 32.000000 32.000000 32.000000 32.000000 32.000000 32.000000 32.000000 32.000000 32.000000 32.000000 32.000000 32.000000 32.000000 32.000000 32.000000 32.000000 32.000000 32.000000 32.000000 32.000000 32.000000 32.000000 32.000000 32.000000 32.000000 32.000000 32.000000 32.000000 32.000000 32.000000 32.000000 32.000000 32.000000 32.000000 32.000000 32.000000 32.000000 32.000000 32.000000 32.000000 32.000000 32.000000 32.000000 32.000000 32.000000 32.000000 32.000000 32.000000 32.000000 32.000000 32.000000 32.000000 32.000000 32.000000 32.000000 32.000000 32.000000 32.000000 32.000000 32.000000 32.000000 32.000000 32.000000 32.000000 32.000000 32.000000 32.000000 32.000000 32.000000 32.000000 32.000000 32.000000 32.000000 32.000000 32.000000 32.000000 32.000000 32.000000 32.000000 32.000000 32.000000 32.000000 32.000000 32.000000 32.000000 32.000000 32.000000 32.000000 32.000000 32.000000 32.000000 32.000000 32.000000 32.000000 32.000000 32.000000 32.000000 32.000000 32.000000 32.000000 32.000000 32.000000 32.000000 32.000000 32.000000 32.000000 32.000000 32.000000 32.000000 32.000000 32.000000 32.000000 32.000000 32.000000 32.000000 32.000000 32.000000 32.000000 32.000000 32.000000 32.000000 32.000000 32.000000 32.000000 32.000000 32.000000 32.000000 32.000000 32.000000 32.000000 32.000000 32.000000 32.000000 32.000000 32.000000 32.000000 32.000000 32.000000 32.000000 32.000000 32.000000 32.000000 32.000000 32.000000 32.000000 32.000000 32.000000 32.000000 32.000000 32.000000 32.000000 32.000000 32.000000 32.000000 32.000000 32.000000 32.000000 32.000000 32.000000 32.000000
32.377778 32.409017 32.440259 32.471508 32.502767 32.534038 32.565326 32.596633 32.627961 32.659313 32.690691 32.722097 32.753531 32.784996 32.816491 32.848018 32.879575 32.911162 32.942777 32.974419 33.006085 33.037772 33.069475 33.101192 33.132914 33.164639 33.196358 33.228064 33.259748 33.291402 33.323015 33.354579 33.386078 33.417504 33.448841 33.480076 33.511194 33.542181 33.573018 33.603691 33.634180 33.664468 33.694536 33.724365 33.753933 33.783223 33.812211 33.840879 33.869203 33.897165 33.924739 33.951908 33.978647 34.004937 34.030755 34.056082 34.080896 34.105179 34.128908 34.152068 34.174638 34.196601 34.217940 34.238639 34.258681 34.278054 34.296742 34.314733 34.332014 34.348574 34.364403 34.379491 34.393829 34.407409 34.420224 34.432267 34.443532 34.454014 34.463708 34.472611 34.480718 34.488026 34.494533 34.500237 34.505135 34.509227 34.512510 34.514985 34.516650 34.517505 34.517550 34.516785 34.515211 34.512827 34.509636 34.505637 34.500833 34.495225 34.488816 34.481607 34.473602 34.464804 34.455217 34.444845 34.433693 34.421766 34.409072 34.395615 34.381406 34.366450 34.350758 34.334339 34.317205 34.299365 34.280834 34.261624 34.241750 34.221225 34.200066 34.178289 34.155913 34.132952 34.109429 34.085360 34.060767 34.035667 34.010085 33.984038 33.957550 33.930640 33.903332 33.875646 33.847606 33.819230 33.790543 33.761562 33.732312 33.702811 33.673080 33.643137 33.613003 33.582695 33.552231 33.521628 33.490903 33.460071 33.429147 33.398143 33.367076 33.335955 33.304794 33.273602 33.242390 33.211166 33.179939 33.148716 33.117506 33.086311 33.055140 33.023994 32.992880 32.961798 32.930753 32.899745 32.868777 32.837848 32.806960 32.776110 32.745300 32.714526 32.683789 32.653084 32.622411 32.591767 32.561148 32.530551 32.499973 32.469411 32.438860 32.408317 32.377778
32.755556 32.818035 32.880520 32.943019 33.005539 33.068084 33.130661 33.193276 33.255935 33.318641 33.381400 33.444213 33.507086 33.570019 33.633014 33.696071 33.759191 33.822369 33.885607 33.948896 34.012235 34.075615 34.139031 34.202471 34.265927 34.329385 34.392834 34.456256 34.519638 34.582957 34.646199 34.709337 34.772353 34.835218 34.897909 34.960395 35.022651 35.084640 35.146335 35.207698 35.268697 35.329293 35.389450 35.449127 35.508288 35.566887 35.624887 35.682243 35.738916 35.794858 35.850031 35.904388 35.957890 36.010489 36.062149 36.112822 36.162472 36.211055 36.258535 36.304871 36.350030 36.393972 36.436667 36.478079 36.518180 36.556938 36.594327 36.630320 36.664894 36.698024 36.729692 36.759876 36.788561 36.815727 36.841364 36.865455 36.887991 36.908959 36.928352 36.946160 36.962377 36.976996 36.990012 37.001421 37.011220 37.019404 37.025972 37.030921 37.034252 37.035962 37.036052 37.034522 37.031373 37.026605 37.020221 37.012223 37.002613 36.991396 36.978574 36.964154 36.948141 36.930542 36.911363 36.890615 36.868305 36.844447 36.819051 36.792132 36.763703 36.733784 36.702390 36.669542 36.635261 36.599572 36.562496 36.524063 36.484298 36.443234 36.400900 36.357330 36.312557 36.266621 36.219553 36.171397 36.122188 36.071971 36.020782 35.968669 35.915669 35.861830 35.807191 35.751799 35.695693 35.638922 35.581523 35.523543 35.465019 35.405997 35.346513 35.286609 35.226319 35.165686 35.104738 35.043516 34.982047 34.920366 34.858500 34.796480 34.734329 34.672075 34.609738 34.547342 34.484905 34.422447 34.359982 34.297529 34.235096 34.172700 34.110347 34.048050 33.985813 33.923646 33.861549 33.799530 33.737587 33.675727 33.613945 33.552243 33.490618 33.429069 33.367590 33.306180 33.244832 33.183541 33.122302 33.061107 32.999950 32.938824 32.877722 32.816635 32.755556
33.133333 33.227055 33.320787 33.414539 33.508321 33.602143 33.696013 33.789941 33.883934 33.977999 34.072143 34.166371 34.260688 34.355097 34.449599 34.544196 34.638886 34.733669 34.828537 34.923489 35.018513 35.113603 35.208745 35.303928 35.399133 35.494347 35.589544 35.684708 35.779807 35.874821 35.969714 36.064459 36.159017 36.253355 36.347429 36.441203 36.534627 36.627659 36.720245 36.812341 36.903886 36.994833 37.085117 37.174688 37.263479 37.351436 37.438488 37.524580 37.609641 37.693613 37.776425 37.858018 37.938322 38.017278 38.094817 38.170881 38.245404 38.318330 38.389596 38.459149 38.526928 38.592886 38.656967 38.719125 38.779311 38.837484 38.893598 38.947619 38.999505 39.049228 39.096752 39.142051 39.185096 39.225865 39.264335 39.300487 39.334302 39.365766 39.394864 39.421585 39.445917 39.467853 39.487382 39.504501 39.519201 39.531481 39.541334 39.548761 39.553757 39.556323 39.556458 39.554162 39.549437 39.542283 39.532705 39.520704 39.506286 39.489455 39.470218 39.448581 39.424555 39.398146 39.369369 39.338234 39.304758 39.268955 39.230846 39.190448 39.147788 39.102885 39.055772 39.006473 38.955025 38.901459 38.845815 38.788129 38.728448 38.666811 38.603271 38.537872 38.470671 38.401717 38.331071 38.258784 38.184923 38.109543 38.032710 37.954483 37.874933 37.794116 37.712105 37.628958 37.544748 37.459532 37.373382 37.286355 37.198519 37.109930 37.020655 36.930745 36.840265 36.749263 36.657799 36.565917 36.473673 36.381107 36.288271 36.195200 36.101939 36.008520 35.914984 35.821357 35.727674 35.633956 35.540236 35.446528 35.352859 35.259241 35.165695 35.072228 34.978858 34.885589 34.792432 34.699388 34.606465 34.513661 34.420980 34.328418 34.235974 34.143642 34.051419 33.959298 33.867271 33.775331 33.683468 33.591673 33.499935 33.408243 33.316587 33.224954 33.133333
33.511111 33.636079 33.761061 33.886070 34.011120 34.136222 34.261391 34.386636 34.511970 34.637400 34.762939 34.888589 35.014360 35.140254 35.266276 35.392425 35.518702 35.645101 35.771621 35.898250 36.024983 36.151802 36.278698 36.405646 36.532632 36.659626 36.786608 36.913541 37.040400 37.167140 37.293729 37.420118 37.546267 37.672119 37.797631 37.922737 38.047387 38.171509 38.295049 38.417928 38.540085 38.661438 38.781918 38.901440 39.019933 39.137305 39.253481 39.368369 39.481892 39.593954 39.704477 39.813367 39.920544 40.025915 40.129403 40.230915 40.330377 40.427700 40.522814 40.615633 40.706092 40.794112 40.879631 40.962578 41.042896 41.120520 41.195402 41.267483 41.336720 41.403062 41.466473 41.526909 41.584341 41.638731 41.690055 41.738283 41.783394 41.825366 41.864183 41.899825 41.932282 41.961540 41.987590 42.010421 42.030030 42.046407 42.059549 42.069454 42.076118 42.079540 42.079719 42.076657 42.070354 42.060813 42.048037 42.032031 42.012799 41.990350 41.964689 41.935829 41.903779 41.868553 41.830163 41.788631 41.743971 41.696208 41.645364 41.591469 41.534549 41.474641 41.411776 41.346000 41.277348 41.205873 41.131618 41.054642 40.974996 40.892745 40.807946 40.720672 40.630984 40.538962 40.444674 40.348204 40.249624 40.149024 40.046478 39.942079 39.835905 39.728051 39.618595 39.507634 39.395246 39.281527 39.166553 39.050419 38.933201 38.814988 38.695853 38.575884 38.455147 38.333726 38.211681 38.089093 37.966015 37.842521 37.718660 37.594497 37.470077 37.345457 37.220676 37.095785 36.970815 36.845811 36.720797 36.595811 36.470873 36.346013 36.221244 36.096592 35.972064 35.847679 35.723440 35.599360 35.475438 35.351683 35.228088 35.104658 34.981383 34.858263 34.735287 34.612449 34.489738 34.367144 34.244652 34.122253 33.999930 33.877670 33.755457 33.633276 33.511111
33.888889 34.045108 34.201345 34.357616 34.513938 34.670329 34.826801 34.983372 35.140054 35.296860 35.453800 35.610886 35.768122 35.925518 36.083072 36.240793 36.398672 36.556713 36.714903 36.873239 37.031702 37.190285 37.348959 37.507713 37.666510 37.825331 37.984133 38.142888 38.301545 38.460069 38.618400 38.776496 38.934287 39.091724 39.248728 39.405242 39.561179 39.716474 39.871033 40.024782 40.177621 40.329469 40.480219 40.629786 40.778057 40.924941 41.070321 41.214102 41.356166 41.496416 41.634731 41.771014 41.905144 42.037025 42.166538 42.293589 42.418064 42.539871 42.658901 42.775069 42.888271 42.998428 43.105444 43.209247 43.309749 43.406887 43.500581 43.590775 43.677400 43.760408 43.839739 43.915352 43.987197 44.055240 44.119439 44.179768 44.236193 44.288693 44.337240 44.381820 44.422411 44.459003 44.491579 44.520133 44.544652 44.565132 44.581566 44.593952 44.602284 44.606563 44.606787 44.602957 44.595075 44.583143 44.567166 44.547149 44.523099 44.495023 44.462933 44.426837 44.386753 44.342693 44.294679 44.242727 44.186867 44.127119 44.063518 43.996093 43.924887 43.849934 43.771286 43.688984 43.603090 43.513652 43.420741 43.324415 43.224751 43.121818 43.015701 42.906476 42.794238 42.679067 42.561068 42.440327 42.316955 42.191043 42.062707 41.932041 41.799165 41.664177 41.527196 41.388322 41.247676 41.105355 40.961479 40.816143 40.669464 40.521534 40.372466 40.222346 40.071282 39.919355 39.766666 39.613289 39.459317 39.304817 39.149876 38.994552 38.838922 38.683038 38.526967 38.370754 38.214458 38.058114 37.901773 37.745462 37.589225 37.433082 37.277067 37.121192 36.965486 36.809955 36.654618 36.499476 36.344542 36.189813 36.035295 35.880978 35.726865 35.572942 35.419206 35.265642 35.112240 34.958984 34.805861 34.652851 34.499940 34.347107 34.194334 34.041602 33.888889
34.266667 34.454143 34.641640 34.829179 35.016782 35.204465 35.392251 35.580155 35.768197 35.956387 36.144745 36.333276 36.521996 36.710907 36.900018 37.089326 37.278837 37.468539 37.658433 37.848500 38.038735 38.229109 38.419610 38.610203 38.800866 38.991553 39.182236 39.372859 39.563384 39.753744 39.943894 40.133756 40.323274 40.512361 40.700950 40.888944 41.076267 41.262813 41.448496 41.633200 41.816831 41.999266 42.180402 42.360109 42.538277 42.714771 42.889476 43.062251 43.232980 43.401518 43.567748 43.731523 43.892727 44.051215 44.206871 44.359556 44.509155 44.655536 44.798589 44.938188 45.074232 45.206602 45.335205 45.459933 45.580701 45.697411 45.809990 45.918349 46.022426 46.122143 46.217447 46.308272 46.394575 46.476300 46.553411 46.625864 46.693631 46.756675 46.814976 46.868506 46.917248 46.961183 47.000298 47.034579 47.064018 47.088605 47.108336 47.123204 47.133207 47.138343 47.138611 47.134013 47.124549 47.110223 47.091041 47.067008 47.038131 47.004421 46.965888 46.922548 46.874413 46.821506 46.763844 46.701456 46.634365 46.562608 46.486215 46.405231 46.319694 46.229659 46.135173 46.036303 45.933102 45.825650 45.714010 45.598272 45.478511 45.354826 45.227302 45.096049 44.961161 44.822758 44.680942 44.535841 44.387564 44.236246 44.082002 43.924972 43.765273 43.603050 43.438422 43.271535 43.102507 42.931484 42.758583 42.583947 42.407688 42.229947 42.050829 41.870469 41.688967 41.506450 41.323010 41.138765 40.953800 40.768223 40.582110 40.395558 40.208634 40.021426 39.833989 39.646402 39.458710 39.270981 39.083251 38.895577 38.707986 38.520527 38.333216 38.146093 37.959167 37.772466 37.585996 37.399774 37.213799 37.028082 36.842615 36.657402 36.472429 36.287696 36.103185 35.918887 35.734783 35.550860 35.367096 35.183472 34.999966 34.816557 34.633219 34.449931 34.266667
34.644444 34.863184 35.081949 35.300764 35.519652 35.738639 35.957745 36.176995 36.396404 36.615996 36.835781 37.055779 37.275996 37.496447 37.717131 37.938059 38.159221 38.380623 38.602247 38.824090 39.046126 39.268345 39.490711 39.713203 39.935775 40.158398 40.381013 40.603582 40.826034 41.048319 41.270354 41.492079 41.713398 41.934240 42.154497 42.374086 42.592887 42.810806 43.027713 43.243502 43.458032 43.671189 43.882823 44.092810 44.300993 44.507242 44.711392 44.913309 45.112824 45.309799 45.504064 45.695480 45.883877 46.069116 46.251032 46.429488 46.604324 46.775409 46.942589 47.105743 47.264725 47.419422 47.569699 47.715455 47.856566 47.992941 48.124471 48.251077 48.372661 48.489157 48.600482 48.706578 48.807377 48.902832 48.992885 49.077501 49.156633 49.230253 49.298324 49.360827 49.417733 49.469027 49.514689 49.554710 49.589074 49.617776 49.640806 49.658161 49.669836 49.675830 49.676142 49.670773 49.659725 49.643002 49.620609 49.592553 49.558843 49.519487 49.474502 49.423899 49.367701 49.305923 49.238596 49.165740 49.087395 49.003590 48.914373 48.819781 48.719874 48.614699 48.504328 48.388819 48.268255 48.142707 48.012271 47.877029 47.737092 47.592552 47.443532 47.290138 47.132504 46.970745 46.805008 46.635414 46.462121 46.285259 46.104991 45.921452 45.734810 45.545206 45.352809 45.157759 44.960229 44.760356 44.558311 44.354228 44.148274 43.940578 43.731300 43.520562 43.308517 43.095279 42.880990 42.665755 42.449706 42.232937 42.015569 41.797684 41.579391 41.360762 41.141892 40.922843 40.703697 40.484504 40.265334 40.046227 39.827240 39.608403 39.389762 39.171335 38.953160 38.735245 38.517617 38.300277 38.083241 37.866504 37.650074 37.433937 37.218096 37.002531 36.787235 36.572188 36.357376 36.142774 35.928363 35.714116 35.500011 35.286018 35.072113 34.858264 34.644444
35.022222 35.272232 35.522272 35.772369 36.022554 36.272851 36.523291 36.773894 37.024688 37.275690 37.526925 37.778402 38.030143 38.282151 38.534441 38.787008 39.039863 39.292990 39.546391 39.800043 40.053938 40.308040 40.562335 40.816774 41.071331 41.325945 41.580578 41.835157 42.089632 42.343914 42.597942 42.851613 43.104851 43.357542 43.609595 43.860881 44.111298 44.360702 44.608979 44.855974 45.101558 45.345566 45.587860 45.828263 46.066629 46.302772 46.536539 46.767740 46.996215 47.221770 47.444245 47.663443 47.879204 48.091333 48.299674 48.504036 48.704266 48.900183 49.091640 49.278466 49.460525 49.637657 49.809735 49.976615 50.138183 50.294308 50.444891 50.589814 50.728995 50.862330 50.989749 51.111165 51.226522 51.335746 51.438791 51.535600 51.626137 51.710355 51.788227 51.859719 51.924811 51.983476 52.035702 52.081469 52.120769 52.153590 52.179926 52.199770 52.213120 52.219973 52.220329 52.214188 52.201552 52.182428 52.156818 52.124732 52.086177 52.041168 51.989714 51.931837 51.867552 51.796887 51.719862 51.636516 51.546877 51.450992 51.348900 51.240661 51.126322 51.005957 50.879626 50.747417 50.609402 50.465685 50.316352 50.161521 50.001293 49.835801 49.665159 49.489516 49.308997 49.123764 48.933954 48.739742 48.541274 48.338734 48.132274 47.922088 47.708333 47.491204 47.270864 47.047510 46.821302 46.592438 46.361076 46.127409 45.891589 45.653806 45.414203 45.172961 44.930216 44.686137 44.440851 44.194515 43.947243 43.699180 43.450427 43.201117 42.951337 42.701204 42.450795 42.200210 41.949514 41.698793 41.448098 41.197503 40.947044 40.696783 40.446745 40.196978 39.947497 39.698336 39.449503 39.201019 38.952882 38.705106 38.457679 38.210606 37.963867 37.717459 37.471359 37.225555 36.980018 36.734731 36.489662 36.244787 36.000075 35.755495 35.511014 35.266602 35.022222
35.400000 35.681288 35.962609 36.243998 36.525486 36.807106 37.088886 37.370859 37.653048 37.935482 38.218177 38.501161 38.784441 39.068040 39.351956 39.636205 39.920777 40.205679 40.490890 40.776409 41.062203 41.348259 41.634531 41.920997 42.207596 42.494292 42.781011 43.067704 43.354279 43.640675 43.926784 44.212530 44.497788 44.782468 45.066429 45.349565 45.631720 45.912773 46.192555 46.470928 46.747710 47.022752 47.295857 47.566866 47.835572 48.101806 48.365353 48.626037 48.883637 49.137972 49.388821 49.636000 49.879287 50.118501 50.353424 50.583878 50.809654 51.030580 51.246455 51.457120 51.662386 51.862105 52.056102 52.244244 52.426373 52.602370 52.772095 52.935444 53.092296 53.242561 53.386137 53.522951 53.652915 53.775971 53.892047 54.001099 54.103069 54.197924 54.285618 54.366129 54.439421 54.505478 54.564277 54.615806 54.660048 54.696997 54.726642 54.748981 54.764007 54.771719 54.772118 54.765203 54.750978 54.729446 54.700615 54.664490 54.621084 54.570405 54.512472 54.447298 54.374911 54.295327 54.208585 54.114708 54.013745 53.905731 53.790725 53.668774 53.539953 53.404320 53.261966 53.112965 52.957423 52.795429 52.627109 52.452566 52.271943 52.085361 51.892979 51.694933 51.491398 51.282524 51.068502 50.849493 50.625699 50.397293 50.164486 49.927457 49.686426 49.441575 49.193127 48.941267 48.686218 48.428162 48.167321 47.903872 47.638031 47.369968 47.099891 46.827960 46.554373 46.279279 46.002863 45.725261 45.446643 45.167133 44.886886 44.606009 44.324642 44.042877 43.760839 43.478603 43.196279 42.913927 42.631639 42.349464 42.067477 41.785712 41.504229 41.223052 40.942225 40.661760 40.381690 40.102013 39.822751 39.543894 39.265452 38.987407 38.709758 38.432481 38.155567 37.878984 37.602716 37.326728 37.050996 36.775483 36.500159 36.224985 35.949926 35.674943 35.400000
35.777778 36.090351 36.402962 36.715650 37.028451 37.341401 37.654538 37.967889 38.281492 38.595368 38.909551 39.224055 39.538908 39.854116 40.169700 40.485655 40.801995 41.118704 41.435786 41.753212 42.070975 42.389033 42.707366 43.025918 43.344655 43.663503 43.982417 44.301305 44.620104 44.938707 45.257035 45.574961 45.892391 46.209179 46.525213 46.840331 47.154404 47.467251 47.778727 48.088636 48.396818 48.703060 49.007188 49.308978 49.608244 49.904750 50.198301 50.488654 50.775606 51.058909 51.338358 51.613704 51.884741 52.151221 52.412943 52.669666 52.921193 53.167295 53.407783 53.642441 53.871094 54.093540 54.309620 54.519150 54.721987 54.917965 55.106961 55.288829 55.463462 55.630736 55.790563 55.942835 56.087484 56.224420 56.353589 56.474921 56.588373 56.693891 56.791445 56.880992 56.962512 57.035974 57.101364 57.158662 57.207858 57.248940 57.281902 57.306736 57.323442 57.332015 57.332455 57.324766 57.308947 57.285005 57.252944 57.212774 57.164503 57.108146 57.043714 56.971231 56.890713 56.802192 56.705693 56.601259 56.488922 56.368740 56.240758 56.105047 55.961665 55.810702 55.652230 55.486359 55.313178 55.132815 54.945376 54.751012 54.549847 54.342049 54.127761 53.907172 53.680440 53.447772 53.209341 52.965369 52.716042 52.461595 52.202223 51.938170 51.669639 51.396879 51.120097 50.839544 50.555426 50.267993 49.977448 49.684036 49.387953 49.089436 48.788672 48.485887 48.181255 47.874990 47.567252 47.258240 46.948099 46.637009 46.325101 46.012539 45.699433 45.385930 45.072125 44.758146 44.444070 44.130006 43.816016 43.502193 43.188580 42.875253 42.562243 42.249607 41.937364 41.625556 41.314187 41.003288 40.692850 40.382890 40.073391 39.764358 39.455766 39.147608 38.839852 38.532484 38.225464 37.918771 37.612362 37.306206 37.000261 36.694488 36.388845 36.083290 35.777778
36.155556 36.499421 36.843329 37.187325 37.531447 37.875740 38.220240 38.564988 38.910014 39.255358 39.601041 39.947097 40.293540 40.640398 40.987672 41.335383 41.683521 42.032097 42.381088 42.730493 43.080274 43.430418 43.780872 44.131607 44.482553 44.833667 45.184858 45.536069 45.887190 46.238144 46.588802 46.939068 47.288795 47.637867 47.986115 48.333406 48.679551 49.024397 49.367737 49.709402 50.049163 50.386837 50.722180 51.054993 51.385019 51.712046 52.035808 52.356083 52.672597 52.985122 53.293383 53.597148 53.896142 54.190135 54.478858 54.762086 55.039558 55.311059 55.576341 55.835201 56.087407 56.332773 56.571085 56.802176 57.025852 57.241965 57.450344 57.650863 57.843373 58.027768 58.203921 58.371746 58.531139 58.682032 58.824340 58.958011 59.082979 59.199206 59.306641 59.405259 59.495021 59.575912 59.647904 59.710986 59.765143 59.810367 59.846648 59.873984 59.892369 59.901803 59.902286 59.893818 59.876404 59.850046 59.814751 59.770526 59.717383 59.655330 59.584389 59.504571 59.415906 59.318413 59.212134 59.097095 58.973350 58.840940 58.699935 58.550386 58.392383 58.225995 58.051329 57.868475 57.677560 57.478692 57.272024 57.057684 56.835845 56.606656 56.370315 56.126989 55.876896 55.620221 55.357203 55.088041 54.812990 54.532262 54.246124 53.954800 53.658562 53.357640 53.052313 52.742812 52.429415 52.112352 51.791897 51.468272 51.141747 50.812535 50.480892 50.147020 49.811164 49.473507 49.134280 48.793651 48.451831 48.108971 47.765263 47.420838 47.075869 46.730468 46.384786 46.038918 45.692994 45.347090 45.001316 44.655729 44.310422 43.965434 43.620839 43.276660 42.932953 42.589730 42.247027 41.904843 41.563201 41.222087 40.881511 40.541450 40.201900 39.862829 39.524223 39.186044 38.848267 38.510850 38.173760 37.836950 37.500381 37.164003 36.827772 36.491639 36.155556
36.533333 36.908498 37.283711 37.659020 38.034474 38.410116 38.785995 39.162147 39.538620 39.915441 40.292653 40.670277 41.048348 41.426876 41.805888 42.185383 42.565378 42.945858 43.326829 43.708259 44.090143 44.472432 44.855104 45.238094 45.621363 46.004826 46.388427 46.772060 47.155650 47.539069 47.922223 48.304961 48.687168 49.068671 49.449335 49.828963 50.207398 50.584423 50.959862 51.333475 51.705067 52.074379 52.441199 52.805253 53.166311 53.524086 53.878337 54.228767 54.575125 54.917108 55.254461 55.586880 55.914108 56.235844 56.551836 56.861790 57.165463 57.462572 57.752888 58.036144 58.312126 58.580587 58.841333 59.094139 59.338834 59.575216 59.803136 60.022420 60.232940 60.434548 60.627140 60.810592 60.984821 61.149726 61.305244 61.451296 61.587835 61.714800 61.832159 61.939866 62.037901 62.126232 62.204845 62.273719 62.332848 62.382217 62.421825 62.451663 62.471731 62.482027 62.482551 62.473305 62.454290 62.425513 62.386976 62.338691 62.280662 62.212907 62.135434 62.048269 61.951426 61.844942 61.728839 61.603165 61.467956 61.323276 61.169173 61.005731 60.833014 60.651126 60.460153 60.260221 60.051437 59.833952 59.607896 59.373445 59.130751 58.880017 58.621418 58.355181 58.081501 57.800629 57.512780 57.218222 56.917187 56.609961 56.296786 55.977962 55.653739 55.324422 54.990268 54.651584 54.308625 53.961699 53.611054 53.256991 52.899752 52.539626 52.176842 51.811678 51.444345 51.075105 50.704152 50.331729 49.958011 49.583218 49.207506 48.831073 48.454055 48.076626 47.698900 47.321030 46.943109 46.565267 46.187576 45.810145 45.433027 45.056310 44.680029 44.304251 43.928995 43.554311 43.180202 42.806700 42.433794 42.061502 41.689800 41.318692 40.948146 40.578150 40.208664 39.839668 39.471113 39.102968 38.735182 38.367715 38.000512 37.633527 37.266704 36.899991 36.533333
36.911111 37.317580 37.724102 38.130734 38.537524 38.944529 39.351793 39.759369 40.167295 40.575620 40.984374 41.393600 41.803317 42.213560 42.624336 43.035671 43.447557 43.860009 44.273004 44.686543 45.100584 45.515116 45.930076 46.345434 46.761110 47.177055 47.593165 48.009371 48.425546 48.841601 49.257385 49.672784 50.087624 50.501768 50.915017 51.327211 51.738125 52.147577 52.555320 52.961147 53.364789 53.766022 54.164554 54.560142 54.952478 55.341305 55.726300 56.107194 56.483655 56.855407 57.222113 57.583494 57.939213 58.288993 58.632504 58.969474 59.299585 59.622578 59.938150 60.246056 60.546017 60.837807 61.121168 61.395900 61.661772 61.918607 62.166203 62.404409 62.633052 62.852006 63.061127 63.260313 63.449447 63.628451 63.797231 63.955731 64.103876 64.241629 64.368935 64.485767 64.592089 64.687883 64.773126 64.847807 64.911912 64.965436 65.008371 65.040716 65.062468 65.073625 65.074190 65.064162 65.043547 65.012344 64.970564 64.918207 64.855288 64.781812 64.697800 64.603261 64.498226 64.382711 64.256761 64.120401 63.973691 63.816672 63.649421 63.471996 63.284496 63.086999 62.879628 62.662485 62.435720 62.199458 61.953878 61.699131 61.435424 61.162934 60.881896 60.592512 60.295044 59.989716 59.676815 59.356584 59.029329 58.695312 58.354853 58.008226 57.655761 57.297740 56.934499 56.566320 56.193541 55.816441 55.435353 55.050547 54.662348 54.271014 53.876855 53.480116 53.081088 52.679997 52.277115 51.872648 51.466844 51.059887 50.652004 50.243352 49.834134 49.424486 49.014584 48.604541 48.194508 47.784575 47.374870 46.965460 46.556451 46.147887 45.739854 45.332378 44.925520 44.519291 44.113734 43.708844 43.304644 42.901115 42.498266 42.096066 41.694509 41.293553 40.893179 40.493338 40.094000 39.695109 39.296626 38.898490 38.500654 38.103055 37.705639 37.308344 36.911111
37.288889 37.726666 38.164504 38.602461 39.040598 39.478968 39.917632 40.356637 40.796039 41.235878 41.676205 42.117047 42.558450 43.000430 43.443022 43.886226 44.330069 44.774534 45.219633 45.665332 46.111628 46.558467 47.005829 47.453637 47.901853 48.350376 48.799147 49.248041 49.696975 50.145800 50.594408 51.042623 51.490312 51.937272 52.383344 52.828299 53.271951 53.714045 54.154371 54.592646 55.028637 55.462039 55.892596 56.319983 56.743925 57.164078 57.580154 57.991795 58.398700 58.800507 59.196907 59.587534 59.972080 60.350182 60.721537 61.085792 61.442652 61.791781 62.132899 62.465691 62.789898 63.105227 63.411446 63.708289 63.995552 64.273000 64.540456 64.797718 65.044639 65.281047 65.506824 65.721829 65.925971 66.119136 66.301257 66.472248 66.632060 66.780629 66.917924 67.043900 67.158537 67.261805 67.353695 67.434188 67.503280 67.560959 67.607228 67.642079 67.665515 67.677534 67.678138 67.667329 67.645108 67.611480 67.566447 67.510018 67.442196 67.362995 67.272421 67.170499 67.057240 66.932678 66.796835 66.649760 66.491487 66.322085 66.141603 65.950133 65.747745 65.534554 65.310656 65.076194 64.831290 64.576118 64.310827 64.035625 63.750688 63.456257 63.152536 62.839796 62.518269 62.188254 61.850008 61.503853 61.150066 60.788991 60.420920 60.046212 59.665169 59.278159 58.885489 58.487530 58.084590 57.677034 57.265165 56.849342 56.429855 56.007050 55.581201 55.152638 54.721615 54.288441 53.853350 53.416625 52.978475 52.539161 52.098866 51.657822 51.216187 50.774167 50.331893 49.889543 49.447224 49.005087 48.563214 48.121730 47.680695 47.240207 46.800306 46.361068 45.922511 45.484688 45.047602 44.611286 44.175724 43.740933 43.306883 42.873573 42.440963 42.009036 41.577743 41.147053 40.716910 40.287272 39.858077 39.429273 39.000795 38.572585 38.144574 37.716698 37.288889
37.666667 38.135755 38.604910 39.074198 39.543682 40.013429 40.483496 40.953948 41.424832 41.896210 42.368120 42.840615 43.313722 43.787486 44.261919 44.737055 45.212889 45.689443 46.166693 46.644645 47.123256 47.602515 48.082354 48.562743 49.043591 49.524845 50.006389 50.488146 50.969972 51.451764 51.933350 52.414602 52.895316 53.375337 53.854432 54.332417 54.809029 55.284056 55.757208 56.228244 56.696847 57.162751 57.625615 58.085149 58.540991 58.992832 59.440294 59.883051 60.320713 60.752947 61.179354 61.599598 62.013280 62.420067 62.819566 63.211452 63.595347 63.970940 64.337872 64.695852 65.044548 65.383693 65.712986 66.032187 66.341028 66.639303 66.926778 67.203278 67.468605 67.722618 67.965152 68.196097 68.415322 68.622743 68.818259 69.001812 69.173325 69.332762 69.480067 69.615220 69.738183 69.848947 69.947489 70.033805 70.107884 70.169726 70.219326 70.256687 70.281806 70.294686 70.295329 70.283736 70.259910 70.223852 70.175568 70.115056 70.042330 69.957388 69.860250 69.750919 69.629424 69.495778 69.350020 69.192177 69.022306 68.840447 68.646681 68.441069 68.223717 67.994709 67.754182 67.502248 67.239077 66.964810 66.679652 66.383777 66.077425 65.760803 65.434184 65.097809 64.751982 64.396972 64.033116 63.660706 63.280103 62.891621 62.495639 62.092487 61.682558 61.266187 60.843776 60.415663 59.982249 59.543868 59.100914 58.653711 58.202642 57.748015 57.290197 56.829476 56.366198 55.900626 55.433083 54.963807 54.493092 54.021150 53.548246 53.074563 52.600336 52.125721 51.650922 51.176067 50.701331 50.226814 49.752662 49.278951 48.805798 48.333254 47.861412 47.390299 46.919983 46.450473 45.981813 45.513994 45.047039 44.580922 44.115650 43.651181 43.187506 42.724571 42.262352 41.800787 41.339837 40.879435 40.419530 39.960049 39.500933 39.042107 38.583504 38.125048 37.666667