<?xml version="1.0"?>
<VTKFile type="ImageData" version="0.1" byte_order="LittleEndian">
  <ImageData WholeExtent="0 180 0 180 0 0" Origin="0.0 0.0 0.0" Spacing="0.05 0.05 1">
    <Piece Extent="0 180 0 180 0 0">
      <PointData Scalars="Temperature">
        <DataArray type="Float32" Name="Temperature" format="ascii">
32.000000 32.000000 32.000000 32.000000 32.000000 32.000000 32.000000 32.000000 32.000000 32.000000 32.000000 32.000000 32.000000 32.000000 32.000000 32.000000 32.000000 32.000000 32.000000 32.000000 32.000000 32.000000 32.000000 32.000000 32.000000 32.000000 32.000000 32.000000 32.000000 32.000000 32.000000 32.000000 32.000000 32.000000 32.000000 32.000000 32.000000 32.000000 32.000000 32.000000 32.000000 32.000000 32.000000 32.000000 32.000000 32.000000 32.000000 32.000000 32.000000 32.000000 32.000000 32.000000 32.000000 32.000000 32.000000 32.000000 32.000000 32.000000 32.000000 32.000000 32.000000 32.000000 32.000000 32.000000 32.000000 32.000000 32.000000 32.000000 32.000000 32.000000 32.000000 32.000000 32.000000 32.000000 32.000000 32.000000 32.000000 32.000000 32.000000 32.000000 32.000000 32.000000 32.000000 32.000000 32.000000 32.000000 32.000000 32.000000 32.000000 32.000000 32.000000 32.000000 32.000000 32.000000 32.000000 32.000000 32.000000 32.000000 32.000000 32.000000 32.000000 32.000000 32.000000 32.000000 32.000000 32.000000 32.000000 32.000000 32.000000 32.000000 32.000000 32.000000 32.000000 32.000000 32.000000 32.000000 32.000000 32.000000 32.000000 32.000000 32.000000 32.000000 32.000000 32.000000 32.000000 32.000000 32.000000 32.000000 32.000000 32.000000 32.000000 32.000000 32.000000 32.000000 32.000000 32.000000 32.000000 32.000000 32.000000 32.000000 32.000000 32.000000 32.000000 32.000000 32.000000 32.000000 32.000000 32.000000 32.000000 32.000000 32.000000 32.000000 32.000000 32.000000 32.000000 32.000000 32.000000 32.000000 32.000000 32.000000 32.000000 32.000000 32.000000 32.000000 32.000000 32.000000 32.000000 32.000000 32.000000 32.000000 32.000000 32.000000 32.000000 32.000000 32.000000 32.000000 32.000000 32.000000 32.000000 32.000000 32.000000
32.377778 32.407529 32.437286 32.467052 32.496834 32.526637 32.556464 32.586321 32.616212 32.646141 32.676112 32.706128 32.736191 32.766307 32.796473 32.826696 32.856973 32.887306 32.917695 32.948139 32.978636 33.009186 33.039783 33.070426 33.101108 33.131827 33.162572 33.193342 33.224124 33.254914 33.285697 33.316468 33.347210 33.377917 33.408569 33.439158 33.469664 33.500075 33.530371 33.560539 33.590556 33.620407 33.650069 33.679526 33.708752 33.737732 33.766438 33.794853 33.822951 33.850714 33.878114 33.905134 33.931745 33.957931 33.983664 34.008927 34.033693 34.057946 34.081660 34.104820 34.127402 34.149390 34.170764 34.191508 34.211603 34.231036 34.249789 34.267852 34.285207 34.301846 34.317754 34.332924 34.347342 34.361003 34.373896 34.386016 34.397354 34.407906 34.417666 34.426629 34.434791 34.442149 34.448699 34.454439 34.459367 34.463481 34.466779 34.469260 34.470924 34.471770 34.471798 34.471008 34.469400 34.466975 34.463735 34.459679 34.454811 34.449132 34.442645 34.435351 34.427256 34.418361 34.408673 34.398195 34.386933 34.374894 34.362084 34.348510 34.334182 34.319108 34.303299 34.286763 34.269516 34.251567 34.232932 34.213622 34.193656 34.173047 34.151815 34.129974 34.107546 34.084546 34.060999 34.036920 34.012336 33.987262 33.961726 33.935745 33.909347 33.882549 33.855379 33.827855 33.800005 33.771846 33.743406 33.714703 33.685762 33.656600 33.627244 33.597709 33.568018 33.538187 33.508239 33.478186 33.448050 33.417841 33.387581 33.357278 33.326951 33.296606 33.266261 33.235922 33.205601 33.175305 33.145045 33.114824 33.084651 33.054530 33.024467 32.994462 32.964523 32.934647 32.904839 32.875098 32.845425 32.815818 32.786277 32.756799 32.727384 32.698026 32.668725 32.639474 32.610272 32.581112 32.551991 32.522903 32.493844 32.464807 32.435788 32.406780 32.377778
32.755556 32.815061 32.874577 32.934114 32.993681 33.053289 33.112947 33.172664 33.232451 33.292312 33.352258 33.412294 33.472427 33.532661 33.593002 33.653451 33.714013 33.774685 33.835472 33.896367 33.957372 34.018477 34.079684 34.140977 34.202355 34.263801 34.325308 34.386857 34.448439 34.510028 34.571614 34.633167 34.694673 34.756098 34.817425 34.878616 34.939652 35.000490 35.061107 35.121459 35.181519 35.241239 35.300589 35.359521 35.418002 35.475979 35.533420 35.590270 35.646494 35.702039 35.756867 35.810925 35.864176 35.916566 35.968059 36.018602 36.068160 36.116683 36.164136 36.210472 36.255658 36.299649 36.342417 36.383918 36.424127 36.463005 36.500528 36.536663 36.571389 36.604675 36.636504 36.666850 36.695698 36.723025 36.748820 36.773064 36.795748 36.816855 36.836380 36.854309 36.870637 36.885355 36.898458 36.909940 36.919798 36.928026 36.934623 36.939587 36.942915 36.944607 36.944663 36.943083 36.939866 36.935016 36.928534 36.920422 36.910684 36.899324 36.886346 36.871757 36.855561 36.837770 36.818388 36.797428 36.774898 36.750814 36.725185 36.698032 36.669366 36.639210 36.607579 36.574500 36.539990 36.504082 36.466795 36.428164 36.388213 36.346982 36.304497 36.260800 36.215921 36.169906 36.122787 36.074614 36.025419 35.975254 35.924155 35.872175 35.819350 35.765735 35.711367 35.656300 35.600571 35.544235 35.487327 35.429901 35.371992 35.313651 35.254911 35.195823 35.136416 35.076738 35.016816 34.956695 34.896398 34.835968 34.775425 34.714807 34.654130 34.593431 34.532721 34.472032 34.411374 34.350772 34.290236 34.229786 34.169426 34.109176 34.049037 33.989022 33.929132 33.869375 33.809750 33.750263 33.690908 33.631690 33.572601 33.513643 33.454805 33.396087 33.337478 33.278975 33.220565 33.162243 33.103997 33.045820 32.987697 32.929622 32.871580 32.813562 32.755556
33.133333 33.222599 33.311880 33.401193 33.490551 33.579972 33.669466 33.759052 33.848739 33.938543 34.028471 34.118538 34.208748 34.299114 34.389637 34.480329 34.571184 34.662214 34.753408 34.844775 34.936299 35.027985 35.119813 35.211784 35.303873 35.396076 35.488363 35.580724 35.673125 35.765551 35.857961 35.950336 36.042629 36.134816 36.226844 36.318685 36.410279 36.501593 36.592563 36.683150 36.773286 36.862928 36.952003 37.040464 37.128236 37.215267 37.301480 37.386822 37.471211 37.554594 37.636889 37.718041 37.797969 37.876618 37.953907 38.029783 38.104169 38.177011 38.248236 38.317795 38.385615 38.451653 38.515842 38.578140 38.638487 38.696846 38.753161 38.807400 38.859514 38.909475 38.957240 39.002785 39.046074 39.087088 39.125795 39.162180 39.196216 39.227893 39.257188 39.284093 39.308592 39.330677 39.350336 39.367565 39.382355 39.394701 39.404599 39.412047 39.417040 39.419579 39.419662 39.417291 39.412465 39.405188 39.395462 39.383290 39.368680 39.351633 39.332162 39.310269 39.285970 39.259271 39.230189 39.198735 39.164929 39.128784 39.090327 39.049574 39.006557 38.961296 38.913828 38.864177 38.812388 38.758488 38.702528 38.644540 38.584580 38.522687 38.458921 38.393325 38.325965 38.256888 38.186165 38.113845 38.040005 37.964696 37.887997 37.809963 37.730675 37.650187 37.568582 37.485915 37.402270 37.317699 37.232285 37.146081 37.059166 36.971591 36.883433 36.794738 36.705581 36.616005 36.526078 36.435839 36.345354 36.254655 36.163803 36.072826 35.981777 35.890681 35.799586 35.708510 35.617495 35.526555 35.435725 35.345015 35.254455 35.164049 35.073821 34.983771 34.893919 34.804260 34.714808 34.625556 34.536513 34.447667 34.359024 34.270570 34.182305 34.094214 34.006293 33.918526 33.830904 33.743411 33.656037 33.568761 33.481572 33.394451 33.307383 33.220349 33.133333
33.511111 33.630145 33.749201 33.868297 33.987457 34.106698 34.226042 34.345504 34.465106 34.584860 34.704787 34.824894 34.945200 35.065708 35.186437 35.307381 35.428558 35.549957 35.671590 35.793443 35.915521 36.037805 36.160295 36.282963 36.405807 36.528790 36.651904 36.775105 36.898377 37.021670 37.144962 37.268194 37.391337 37.514324 37.637121 37.759652 37.881876 38.003711 38.125109 38.245980 38.366271 38.485887 38.604768 38.722813 38.839959 38.956101 39.071171 39.185061 39.297700 39.408980 39.518826 39.627130 39.733818 39.838781 39.941948 40.043211 40.142501 40.239714 40.334784 40.427613 40.518136 40.606264 40.691937 40.775071 40.855613 40.933486 41.008644 41.081016 41.150563 41.217223 41.280963 41.341728 41.399492 41.454208 41.505853 41.554391 41.599803 41.642057 41.681141 41.717029 41.749711 41.779169 41.805394 41.828374 41.848102 41.864569 41.877772 41.887704 41.894365 41.897751 41.897862 41.894699 41.888262 41.878556 41.865582 41.849348 41.829858 41.807122 41.781146 41.751946 41.719529 41.683915 41.645116 41.603157 41.558053 41.509835 41.458522 41.404154 41.346753 41.286366 41.223022 41.156776 41.087661 41.015741 40.941056 40.863678 40.783652 40.701058 40.615948 40.528410 40.438500 40.346313 40.251912 40.155396 40.056833 39.956326 39.853947 39.749803 39.643967 39.536550 39.427623 39.317299 39.205651 39.092789 38.978784 38.863746 38.747742 38.630878 38.513220 38.394867 38.275881 38.156357 38.036350 37.915949 37.795203 37.674195 37.552966 37.431592 37.310108 37.188583 37.067043 36.945550 36.824125 36.702820 36.581648 36.460656 36.339851 36.219269 36.098913 35.978812 35.858963 35.739387 35.620078 35.501049 35.382289 35.263806 35.145584 35.027627 34.909914 34.792443 34.675193 34.558155 34.441308 34.324638 34.208122 34.091743 33.975477 33.859304 33.743200 33.627144 33.511111
33.888889 34.037703 34.186543 34.335437 34.484408 34.633484 34.782687 34.932043 35.081571 35.231296 35.381232 35.531403 35.681817 35.832497 35.983443 36.134675 36.286187 36.437995 36.590084 36.742467 36.895120 37.048050 37.201227 37.354648 37.508275 37.662100 37.816074 37.970182 38.124364 38.278598 38.432815 38.586984 38.741025 38.894899 39.048517 39.201832 39.354744 39.507198 39.659086 39.810345 39.960858 40.110555 40.259312 40.407052 40.553647 40.699012 40.843015 40.985567 41.126534 41.265823 41.403297 41.538865 41.672389 41.803778 41.932895 42.059651 42.183916 42.305601 42.424581 42.540774 42.654062 42.764367 42.871579 42.975629 43.076415 43.173874 43.267916 43.358485 43.445501 43.528916 43.608659 43.684692 43.756954 43.825412 43.890015 43.950738 44.007539 44.060398 44.109280 44.154172 44.195045 44.231891 44.264687 44.293428 44.318099 44.338693 44.355203 44.367625 44.375953 44.380188 44.380326 44.376370 44.368321 44.356182 44.339958 44.319654 44.295281 44.266844 44.234359 44.197835 44.157293 44.112744 44.064217 44.011727 43.955310 43.894985 43.830798 43.762774 43.690966 43.615406 43.536157 43.453258 43.366784 43.276779 43.183328 43.086486 42.986346 42.882970 42.776463 42.666893 42.554374 42.438982 42.320837 42.200023 42.076667 41.950857 41.822724 41.692360 41.559901 41.425440 41.289116 41.151020 41.011293 40.870025 40.727354 40.583367 40.438201 40.291938 40.144709 39.996591 39.847709 39.698135 39.547984 39.397323 39.246258 39.094847 38.943189 38.791331 38.639365 38.487329 38.335303 38.183319 38.031446 37.879707 37.728162 37.576825 37.425747 37.274933 37.124426 36.974223 36.824358 36.674821 36.525638 36.376793 36.228303 36.080149 35.932337 35.784846 35.637676 35.490800 35.344211 35.197883 35.051801 34.905936 34.760271 34.614773 34.469422 34.324185 34.179038 34.033948 33.888889
34.266667 34.445274 34.623915 34.802618 34.981418 35.160341 35.339422 35.518685 35.698161 35.877870 36.057844 36.238093 36.418648 36.599514 36.780717 36.962253 37.144145 37.326381 37.508978 37.691915 37.875201 38.058806 38.242734 38.426941 38.611424 38.796130 38.981044 39.166103 39.351284 39.536509 39.721747 39.906909 40.091953 40.276777 40.461329 40.645496 40.829216 41.012365 41.194870 41.376597 41.557464 41.737329 41.916099 42.093625 42.269808 42.444490 42.617569 42.788880 42.958316 43.125712 43.290957 43.453886 43.614385 43.772292 43.927496 44.079836 44.229204 44.375447 44.518461 44.658098 44.794264 44.926819 45.055675 45.180706 45.301830 45.418933 45.531944 45.640758 45.745317 45.845527 45.941339 46.032672 46.119486 46.201712 46.279317 46.352246 46.420472 46.483950 46.542660 46.596566 46.645653 46.689893 46.729278 46.763785 46.793409 46.818134 46.837958 46.852870 46.862870 46.867953 46.868119 46.863369 46.853704 46.839130 46.819649 46.795272 46.766004 46.731861 46.692850 46.648995 46.600304 46.546810 46.488525 46.425490 46.357723 46.285273 46.208166 46.126460 46.040189 45.949424 45.854205 45.754614 45.650704 45.542567 45.430264 45.313902 45.193551 45.069330 44.941319 44.809646 44.674402 44.535726 44.393715 44.248518 44.100239 43.949034 43.795011 43.638334 43.479112 43.317512 43.153647 42.987683 42.819733 42.649963 42.478483 42.305455 42.130985 41.955233 41.778295 41.600326 41.421416 41.241710 41.061290 40.880292 40.698789 40.516906 40.334706 40.152303 39.969749 39.787146 39.604537 39.422012 39.239602 39.057387 38.875386 38.693668 38.512243 38.331166 38.150441 37.970110 37.790169 37.610650 37.431540 37.252862 37.074596 36.896755 36.719314 36.542277 36.365615 36.189322 36.013367 35.837737 35.662397 35.487328 35.312493 35.137868 34.963414 34.789104 34.614898 34.440765 34.266667
34.644444 34.852862 35.061317 35.269849 35.478491 35.687284 35.896258 36.105453 36.314892 36.524616 36.734641 36.945005 37.155718 37.366812 37.578290 37.790180 38.002475 38.215197 38.428327 38.641882 38.855832 39.070186 39.284900 39.499976 39.715357 39.931035 40.146939 40.363050 40.579286 40.795613 41.011937 41.228213 41.444331 41.660234 41.875800 42.090959 42.305574 42.519565 42.732782 42.945132 43.156455 43.366649 43.575540 43.783018 43.988901 44.193071 44.395340 44.595582 44.793606 44.989281 45.182413 45.372872 45.560463 45.745054 45.926456 46.104539 46.279119 46.450070 46.617217 46.780442 46.939577 47.094515 47.245098 47.391230 47.532766 47.669620 47.801663 47.928818 48.050973 48.168061 48.279984 48.386688 48.488089 48.584142 48.674777 48.759960 48.839631 48.913767 48.982319 49.045268 49.102579 49.154238 49.200216 49.240506 49.275087 49.303954 49.327094 49.344503 49.356175 49.362109 49.362303 49.356756 49.345474 49.328458 49.305718 49.277256 49.243089 49.203223 49.157680 49.106469 49.049622 48.987150 48.919094 48.845474 48.766337 48.681712 48.591658 48.496211 48.395444 48.289401 48.178169 48.061803 47.940404 47.814038 47.682821 47.546831 47.406197 47.261009 47.111411 46.957503 46.799442 46.637338 46.471362 46.301629 46.128321 45.951561 45.771537 45.588379 45.402279 45.213370 45.021847 44.827843 44.631554 44.433110 44.232705 44.030465 43.826581 43.621171 43.414419 43.206436 42.997397 42.787403 42.576620 42.365138 42.153110 41.940615 41.727794 41.514714 41.301501 41.088210 40.874955 40.661777 40.448776 40.235981 40.023478 39.811285 39.599473 39.388050 39.177072 38.966539 38.756493 38.546925 38.337865 38.129295 37.921233 37.713655 37.506568 37.299942 37.093774 36.888028 36.682694 36.477731 36.273122 36.068822 35.864807 35.661032 35.457466 35.254063 35.050787 34.847594 34.644444
35.022222 35.260468 35.498758 35.737134 35.975643 36.214320 36.453214 36.692356 36.931791 37.171545 37.411661 37.652157 37.893073 38.134416 38.376222 38.618490 38.861248 39.104482 39.348216 39.592423 39.837116 40.082257 40.327849 40.573838 40.820219 41.066921 41.313927 41.561152 41.808565 42.056065 42.303609 42.551078 42.798416 43.045489 43.292224 43.538473 43.784150 44.029091 44.273195 44.516285 44.758249 44.998894 45.238098 45.475657 45.711439 45.945230 46.176890 46.406200 46.633012 46.857104 47.078325 47.296450 47.511329 47.722739 47.930530 48.134486 48.334459 48.530242 48.721695 48.908620 49.090886 49.268308 49.440766 49.608089 49.770171 49.926856 50.078049 50.223613 50.363467 50.497490 50.625613 50.747733 50.863795 50.973711 51.077437 51.174900 51.266067 51.350879 51.429313 51.501320 51.566884 51.625969 51.678563 51.724641 51.764195 51.797207 51.823672 51.843580 51.856929 51.863714 51.863934 51.857592 51.844687 51.825228 51.799217 51.766668 51.727586 51.681992 51.629893 51.571319 51.506283 51.434822 51.356954 51.272729 51.182173 51.085346 50.982283 50.873060 50.757720 50.636355 50.509020 50.375823 50.236831 50.092169 49.941918 49.786220 49.625169 49.458923 49.287590 49.111345 48.930306 48.744662 48.554545 48.360156 48.161634 47.959192 47.752975 47.543203 47.330028 47.113673 46.894291 46.672109 46.447278 46.220023 45.990493 45.758908 45.525410 45.290215 45.053455 44.815337 44.575982 44.335587 44.094263 43.852191 43.609469 43.366266 43.122666 42.878821 42.634803 42.390746 42.146708 41.902809 41.659092 41.415658 41.172539 40.929820 40.687518 40.445705 40.204384 39.963612 39.723381 39.483733 39.244651 39.006163 38.768244 38.530908 38.294121 38.057888 37.822168 37.586955 37.352202 37.117894 36.883982 36.650440 36.417217 36.184281 35.951578 35.719071 35.486706 35.254440 35.022222
35.400000 35.668094 35.936238 36.204483 36.472874 36.741465 37.010295 37.279418 37.548865 37.818690 38.088915 38.359590 38.630729 38.902376 39.174535 39.447244 39.720493 39.994315 40.268686 40.543629 40.819106 41.095130 41.371647 41.648658 41.926094 42.203942 42.482115 42.760587 43.039253 43.318072 43.596921 43.875743 44.154398 44.432811 44.710824 44.988348 45.265205 45.541292 45.816413 46.090449 46.363190 46.634504 46.904166 47.172029 47.437860 47.701502 47.962709 48.221318 48.477078 48.729819 48.979286 49.225308 49.467632 49.706084 49.940416 50.170459 50.395971 50.616789 50.832684 51.043500 51.249021 51.449105 51.643549 51.832226 52.014951 52.191610 52.362038 52.526137 52.683761 52.834827 52.979208 53.116837 53.247605 53.371460 53.488311 53.598117 53.700805 53.796344 53.884675 53.965778 54.039607 54.106148 54.165365 54.217252 54.261783 54.298953 54.328746 54.351160 54.366186 54.373824 54.374071 54.366929 54.352401 54.330491 54.301208 54.264556 54.220556 54.169211 54.110550 54.044583 53.971347 53.890856 53.803160 53.708280 53.606279 53.497187 53.381081 53.258003 53.128046 52.991266 52.847771 52.697632 52.540978 52.377892 52.208524 52.032973 51.851408 51.663942 51.470763 51.272001 51.067861 50.858485 50.644094 50.424842 50.200963 49.972621 49.740060 49.503450 49.263043 49.019013 48.771614 48.521022 48.267491 48.011193 47.752382 47.491222 47.227960 46.962755 46.695843 46.427371 46.157566 45.886561 45.614568 45.341708 45.068177 44.794078 44.519594 44.244811 43.969891 43.694908 43.420004 43.145235 42.870728 42.596521 42.322722 42.049355 41.776510 41.504197 41.232487 40.961378 40.690923 40.421110 40.151975 39.883495 39.615692 39.348532 39.082025 38.816129 38.550840 38.286110 38.021925 37.758231 37.495003 37.232185 36.969742 36.707615 36.445764 36.184128 35.922661 35.661302 35.400000
35.777778 36.075741 36.373763 36.671895 36.970197 37.268719 37.567519 37.866640 38.166141 38.466054 38.766437 39.067311 39.368730 39.670705 39.973282 40.276461 40.580279 40.884722 41.189818 41.495538 41.801900 42.108855 42.416411 42.724501 43.033120 43.342181 43.651663 43.961460 44.271536 44.581764 44.892091 45.202369 45.512526 45.822396 46.131887 46.440813 46.749065 47.056437 47.362801 47.667934 47.971693 48.273835 48.574203 48.872540 49.168677 49.462344 49.753359 50.041447 50.326416 50.607986 50.885962 51.160060 51.430084 51.695754 51.956876 52.213175 52.464464 52.710477 52.951038 53.185893 53.414878 53.637757 53.854378 54.064527 54.268067 54.464803 54.654618 54.837339 55.012865 55.181045 55.341796 55.494990 55.640559 55.778396 55.908450 56.030630 56.144900 56.251188 56.349466 56.439680 56.521810 56.595814 56.661682 56.719382 56.768908 56.810238 56.843370 56.868292 56.885000 56.893492 56.893765 56.885823 56.869666 56.845303 56.812735 56.771980 56.723040 56.665941 56.600691 56.527322 56.445847 56.356313 56.258739 56.153182 56.039673 55.918285 55.789057 55.652082 55.507413 55.355160 55.195392 55.028241 54.853791 54.672196 54.483557 54.288051 54.085798 53.876994 53.661778 53.440368 53.212916 52.979660 52.740769 52.496496 52.247021 51.992612 51.733456 51.469834 51.201938 50.930053 50.654375 50.375192 50.092698 49.807179 49.518824 49.227915 48.934633 48.639250 48.341936 48.042953 47.742456 47.440691 47.137802 46.834015 46.529457 46.224339 45.918767 45.612932 45.306924 45.000912 44.694969 44.389243 44.083787 43.778730 43.474108 43.170028 42.866510 42.563642 42.261427 41.959935 41.659155 41.359138 41.059861 40.761356 40.463592 40.166583 39.870288 39.574708 39.279793 38.985530 38.691863 38.398769 38.106184 37.814076 37.522379 37.231050 36.940022 36.649244 36.358650 36.068183 35.777778
36.155556 36.483412 36.811331 37.139379 37.467612 37.796097 38.124886 38.454046 38.783618 39.113668 39.444227 39.775358 40.107080 40.439450 40.772473 41.106199 41.440619 41.775773 42.111635 42.448235 42.785530 43.123534 43.462187 43.801490 44.141360 44.481782 44.822654 45.163942 45.505521 45.847340 46.189251 46.531182 46.872964 47.214504 47.555609 47.896168 48.235965 48.574867 48.912638 49.249128 49.584077 49.917320 50.248579 50.577672 50.904308 51.228288 51.549312 51.867171 52.181553 52.492246 52.798933 53.101397 53.399323 53.692494 53.980600 54.263428 54.540678 54.812146 55.077544 55.336681 55.589287 55.835184 56.074124 56.305946 56.530425 56.747418 56.956725 57.158225 57.351740 57.537169 57.714360 57.883232 58.043656 58.195569 58.338865 58.473495 58.599375 58.716471 58.824714 58.924083 59.014526 59.096028 59.168551 59.232088 59.286612 59.332119 59.368591 59.396027 59.414419 59.423766 59.424066 59.415320 59.397534 59.370708 59.334855 59.289979 59.236098 59.173220 59.101373 59.020567 58.930845 58.832220 58.724749 58.608456 58.483411 58.349649 58.207261 58.056294 57.896859 57.729020 57.552909 57.368609 57.176277 56.976013 56.767999 56.552358 56.329294 56.098949 55.861555 55.617271 55.366350 55.108972 54.845409 54.575855 54.300600 54.019849 53.733907 53.442986 53.147402 52.847371 52.543212 52.235143 51.923484 51.608450 51.290354 50.969406 50.645911 50.320066 49.992168 49.662398 49.331037 48.998251 48.664304 48.329343 47.993612 47.657240 47.320448 46.983344 46.646128 46.308889 45.971801 45.634934 45.298438 44.962364 44.626841 44.291897 43.957640 43.624082 43.291307 42.959312 42.628161 42.297835 41.968378 41.639758 41.312002 40.985065 40.658958 40.333627 40.009065 39.685212 39.362047 39.039503 38.717548 38.396110 38.075145 37.754580 37.434362 37.114415 36.794680 36.475082 36.155556
36.533333 36.891106 37.248950 37.606932 37.965127 38.323595 38.682411 39.041628 39.401318 39.761524 40.122317 40.483726 40.845818 41.208608 41.572156 41.936461 42.301574 42.667478 43.034211 43.401739 43.770086 44.139197 44.509083 44.879667 45.250941 45.622807 45.995239 46.368113 46.741384 47.114904 47.488607 47.862318 48.235950 48.609302 48.982266 49.354615 49.726218 50.096825 50.466281 50.834314 51.200748 51.565292 51.927749 52.287808 52.645258 52.999772 53.351126 53.698981 54.043102 54.383144 54.718866 55.049922 55.376068 55.696960 56.012359 56.321928 56.625434 56.922555 57.213070 57.496672 57.773157 58.042239 58.303732 58.557374 58.803001 59.040378 59.269362 59.489746 59.701409 59.904173 60.097939 60.282556 60.457947 60.623985 60.780613 60.927729 61.065290 61.193217 61.311480 61.420019 61.518815 61.607822 61.687031 61.756408 61.815949 61.865632 61.905457 61.935408 61.955488 61.965691 61.966017 61.956468 61.937045 61.907757 61.868605 61.819607 61.760764 61.692103 61.613630 61.525380 61.427366 61.319638 61.202214 61.075161 60.938507 60.792338 60.636696 60.471688 60.297374 60.113882 59.921292 59.719759 59.509383 59.290347 59.062771 58.826868 58.582782 58.330751 58.070942 57.803619 57.528972 57.247288 56.958773 56.663739 56.362407 56.055105 55.742065 55.423628 55.100035 54.771634 54.438668 54.101489 53.760338 53.415564 53.067403 52.716198 52.362172 52.005657 51.646865 51.286111 50.923590 50.559599 50.194312 49.828008 49.460838 49.093057 48.724797 48.356286 47.987634 47.619043 47.250601 46.882484 46.514758 46.147575 45.780976 45.415090 45.049938 44.685624 44.322152 43.959600 43.597956 43.237276 42.877533 42.518762 42.160921 41.804028 41.448029 41.092924 40.738648 40.385186 40.032467 39.680459 39.329086 38.978305 38.628034 38.278219 37.928779 37.579649 37.230747 36.882002 36.533333
36.911111 37.298824 37.686615 38.074562 38.462739 38.851226 39.240087 39.629405 40.019232 40.409648 40.800695 41.192448 41.584934 41.978222 42.372323 42.767298 43.163140 43.559899 43.957548 44.356124 44.755579 45.155935 45.557122 45.959142 46.361902 46.765386 47.169473 47.574128 47.979203 48.384639 48.790262 49.195989 49.601616 50.007038 50.412024 50.816441 51.220031 51.622637 52.023976 52.423866 52.822000 53.218172 53.612054 54.003421 54.391924 54.777323 55.159253 55.537460 55.911570 56.281319 56.646329 57.006330 57.360944 57.709903 58.052834 58.389477 58.719468 59.042558 59.358401 59.666763 59.967320 60.259857 60.544075 60.819782 61.086707 61.344683 61.593470 61.832925 62.062839 62.283097 62.493519 62.694013 62.884431 63.064703 63.234707 63.394393 63.543665 63.682489 63.810790 63.928547 64.035706 64.132253 64.218150 64.293392 64.357951 64.411827 64.455002 64.487478 64.509245 64.520305 64.520657 64.510301 64.489243 64.457483 64.415034 64.361896 64.298091 64.223621 64.138518 64.042787 63.936474 63.819590 63.692196 63.554315 63.406024 63.247360 63.078422 62.899264 62.710009 62.510731 62.301581 62.082655 61.854133 61.616134 61.368872 61.112491 60.847233 60.573270 60.290875 60.000242 59.701675 59.395389 59.081712 58.760881 58.433246 58.099056 57.758680 57.412379 57.060531 56.703404 56.341382 55.974732 55.603840 55.228970 54.850499 54.468683 54.083891 53.696362 53.306452 52.914382 52.520490 52.124977 51.728156 51.330208 50.931422 50.531953 50.132064 49.731886 49.331654 48.931474 48.531551 48.131968 47.732902 47.334411 46.936646 46.539639 46.143516 45.748288 45.354053 44.960804 44.568615 44.177459 43.787387 43.398358 43.010401 42.623460 42.237543 41.852585 41.468576 41.085439 40.703149 40.321622 39.940817 39.560648 39.181058 38.801958 38.423282 38.044940 37.666855 37.288940 36.911111
37.288889 37.706566 38.124330 38.542263 38.960454 39.378978 39.797927 40.217364 40.637378 41.058024 41.479387 41.901505 42.324459 42.748272 43.173015 43.598694 44.025369 44.453024 44.881709 45.311386 45.742088 46.173753 46.606396 47.039932 47.474354 47.909550 48.345492 48.782038 49.219138 49.656619 50.094406 50.532296 50.970186 51.407845 51.845142 52.281813 52.717701 53.152514 53.586068 54.018040 54.448221 54.876265 55.301937 55.724867 56.144802 56.561352 56.974245 57.383079 57.787568 58.187302 58.581988 58.971210 59.354675 59.731971 60.102807 60.466781 60.823612 61.172914 61.514420 61.847765 62.172702 62.488895 62.796118 63.094064 63.382537 63.661261 63.930068 64.188718 64.437070 64.674919 64.902153 65.118599 65.324172 65.518730 65.702211 65.874504 66.035565 66.185307 66.323705 66.450692 66.566255 66.670348 66.762963 66.844069 66.913665 66.971731 67.018269 67.053266 67.076725 67.088642 67.089019 67.077857 67.055156 67.020927 66.975166 66.917892 66.849104 66.768826 66.677061 66.573846 66.459188 66.333139 66.195714 66.046983 65.886975 65.715781 65.533444 65.340082 65.135759 64.920620 64.694753 64.458335 64.211479 63.954396 63.687228 63.410219 63.123540 62.827470 62.522207 62.208065 61.885267 61.554157 61.214982 60.868113 60.513817 60.152485 59.784399 59.409965 59.029477 58.643350 58.251879 57.855484 57.454459 57.049219 56.640049 56.227358 55.811418 55.392622 54.971225 54.547602 54.121986 53.694728 53.266039 52.836244 52.405527 51.974186 51.542377 51.110367 50.678286 50.246370 49.814721 49.383545 48.952917 48.523011 48.093876 47.665659 47.238384 46.812167 46.387010 45.963003 45.540128 45.118447 44.697925 44.278600 43.860420 43.443401 43.027477 42.612644 42.198825 41.785996 41.374072 40.963012 40.552724 40.143154 39.734203 39.325806 38.917861 38.510293 38.103001 37.695898 37.288889
37.666667 38.114332 38.562090 39.010038 39.458262 39.906862 40.355914 40.805517 41.255737 41.706671 42.158369 42.610924 43.064370 43.518793 43.974208 44.430690 44.888236 45.346906 45.806675 46.267589 46.729597 47.192728 47.656903 48.122132 48.588307 49.055415 49.523320 49.991982 50.461234 50.931009 51.401107 51.871434 52.341757 52.811951 53.281750 53.751000 54.219400 54.686766 55.152768 55.617191 56.079675 56.539977 56.997711 57.452609 57.904261 58.352378 58.796531 59.236415 59.671587 60.101730 60.526396 60.945262 61.357877 61.763922 62.162952 62.554655 62.938600 63.314489 63.681912 64.040590 64.390140 64.730306 65.060740 65.381211 65.691408 65.991132 66.280106 66.558166 66.825074 67.080696 67.324832 67.557379 67.778172 67.987136 68.184140 68.369131 68.542007 68.702738 68.851245 68.987513 69.111486 69.223157 69.322489 69.409483 69.484112 69.546382 69.596278 69.633803 69.658952 69.671728 69.672129 69.660158 69.635818 69.599109 69.550043 69.488616 69.414848 69.328737 69.230313 69.119576 68.996570 68.861302 68.713834 68.554183 68.382430 68.198611 68.002831 67.795144 67.575687 67.344537 67.101862 66.847770 66.582463 66.306078 66.018857 65.720968 65.412691 65.094227 64.765893 64.427920 64.080661 63.724376 63.359449 62.986165 62.604934 62.216060 61.819976 61.416997 61.007570 60.592019 60.170798 59.744230 59.312770 58.876735 58.436573 57.992589 57.545217 57.094747 56.641595 56.186026 55.728435 55.269061 54.808272 54.346281 53.883423 53.419883 52.955964 52.491821 52.027724 51.563797 51.100276 50.637256 50.174939 49.713392 49.252783 48.793152 48.334637 47.877251 47.421101 46.966177 46.512559 46.060215 45.609198 45.159457 44.711020 44.263821 43.817864 43.373070 42.929421 42.486828 42.045256 41.604604 41.164821 40.725802 40.287480 39.849747 39.412523 38.975699 38.539186 38.102874 37.666667