# vtk DataFile Version 3.0
Steady-state temperature (Jacobi)
ASCII
DATASET STRUCTURED_POINTS
DIMENSIONS 181 181 1
ORIGIN 0.0 0.0 0.0
SPACING 0.05 0.05 1.0
POINT_DATA 32761
SCALARS Temperature float 1
LOOKUP_TABLE default
32.000000 32.000000 32.000000 32.000000 32.000000 32.000000 32.000000 32.000000
32.000000 32.000000 32.000000 32.000000 32.000000 32.000000 32.000000 32.000000
32.000000 32.000000 32.000000 32.000000 32.000000 32.000000 32.000000 32.000000
32.000000 32.000000 32.000000 32.000000 32.000000 32.000000 32.000000 32.000000
32.000000 32.000000 32.000000 32.000000 32.000000 32.000000 32.000000 32.000000
32.000000 32.000000 32.000000 32.000000 32.000000 32.000000 32.000000 32.000000
32.000000 32.000000 32.000000 32.000000 32.000000 32.000000 32.000000 32.000000
32.000000 32.000000 32.000000 32.000000 32.000000 32.000000 32.000000 32.000000
32.000000 32.000000 32.000000 32.000000 32.000000 32.000000 32.000000 32.000000
32.000000 32.000000 32.000000 32.000000 32.000000 32.000000 32.000000 32.000000
32.000000 32.000000 32.000000 32.000000 32.000000 32.000000 32.000000 32.000000
32.000000 32.000000 32.000000 32.000000 32.000000 32.000000 32.000000 32.000000
32.000000 32.000000 32.000000 32.000000 32.000000 32.000000 32.000000 32.000000
32.000000 32.000000 32.000000 32.000000 32.000000 32.000000 32.000000 32.000000
32.000000 32.000000 32.000000 32.000000 32.000000 32.000000 32.000000 32.000000
32.000000 32.000000 32.000000 32.000000 32.000000 32.000000 32.000000 32.000000
32.000000 32.000000 32.000000 32.000000 32.000000 32.000000 32.000000 32.000000
32.000000 32.000000 32.000000 32.000000 32.000000 32.000000 32.000000 32.000000
32.000000 32.000000 32.000000 32.000000 32.000000 32.000000 32.000000 32.000000
32.000000 32.000000 32.000000 32.000000 32.000000 32.000000 32.000000 32.000000
32.000000 32.000000 32.000000 32.000000 32.000000 32.000000 32.000000 32.000000
32.000000 32.000000 32.000000 32.000000 32.000000 32.000000 32.000000 32.000000
32.000000 32.000000 32.000000 32.000000 32.000000
32.377778 32.407763 32.437754 32.467754 32.497769 32.527803 32.557860 32.587945
32.618062 32.648216 32.678408 32.708643 32.738922 32.769250 32.799626 32.830054
32.860532 32.891064 32.921645 32.952279 32.982960 33.013689 33.044460 33.075272
33.106118 33.136996 33.167895 33.198812 33.229737 33.260663 33.291577 33.322473
33.353335 33.384154 33.414915 33.445606 33.476208 33.506711 33.537092 33.567340
33.597432 33.627352 33.657078 33.686594 33.715875 33.744903 33.773654 33.802110
33.830244 33.858039 33.885467 33.912510 33.939142 33.965345 33.991091 34.016365
34.041139 34.065397 34.089114 34.112275 34.134855 34.156840 34.178208 34.198945
34.219032 34.238456 34.257200 34.275251 34.292595 34.309222 34.325118 34.340275
34.354681 34.368329 34.381210 34.393318 34.404645 34.415186 34.424935 34.433889
34.442042 34.449392 34.455935 34.461670 34.466592 34.470703 34.473998 34.476478
34.478142 34.478989 34.479019 34.478233 34.476630 34.474211 34.470978 34.466931
34.462073 34.456404 34.449928 34.442647 34.434566 34.425685 34.416013 34.405550
34.394306 34.382283 34.369490 34.355934 34.341624 34.326567 34.310776 34.294258
34.277028 34.259095 34.240475 34.221180 34.201228 34.180631 34.159410 34.137578
34.115157 34.092163 34.068618 34.044540 34.019954 33.994875 33.969331 33.943339
33.916926 33.890109 33.862917 33.835367 33.807486 33.779292 33.750813 33.722065
33.693075 33.663860 33.634444 33.604844 33.575084 33.545177 33.515147 33.485007
33.454778 33.424471 33.394106 33.363693 33.333249 33.302783 33.272309 33.241835
33.211375 33.180933 33.150521 33.120142 33.089807 33.059516 33.029279 32.999095
32.968971 32.938906 32.908905 32.878964 32.849088 32.819274 32.789522 32.759828
32.730194 32.700614 32.671087 32.641609 32.612176 32.582783 32.553427 32.524102
32.494805 32.465529 32.436269 32.407021 32.377778
32.755556 32.815529 32.875513 32.935516 32.995548 33.055619 33.115737 33.175910
33.236149 33.296458 33.356848 33.417321 33.477886 33.538544 33.599304 33.660163
33.721129 33.782196 33.843369 33.904640 33.966014 34.027477 34.089032 34.150664
34.212369 34.274132 34.335946 34.397790 34.459656 34.521518 34.583365 34.645168
34.706912 34.768565 34.830107 34.891503 34.952731 35.013752 35.074539 35.135051
35.195259 35.255118 35.314597 35.373646 35.432235 35.490311 35.547840 35.604771
35.661067 35.716675 35.771559 35.825664 35.878956 35.931379 35.982899 36.033464
36.083038 36.131571 36.179029 36.225365 36.270548 36.314532 36.357289 36.398777
36.438969 36.477829 36.515332 36.551445 36.586148 36.619410 36.651214 36.681534
36.710357 36.737659 36.763430 36.787650 36.810311 36.831396 36.850900 36.868810
36.885121 36.899823 36.912913 36.924383 36.934231 36.942452 36.949044 36.954005
36.957333 36.959027 36.959088 36.957514 36.954308 36.949470 36.943002 36.934907
36.925188 36.913850 36.900895 36.886331 36.870163 36.852401 36.833049 36.812121
36.789624 36.765575 36.739981 36.712863 36.684232 36.654112 36.622516 36.589472
36.554997 36.519121 36.481865 36.443264 36.403341 36.362134 36.319671 36.275992
36.231128 36.185124 36.138012 36.089839 36.040640 35.990465 35.939351 35.887348
35.834494 35.780842 35.726430 35.671311 35.615521 35.559115 35.502128 35.444614
35.386607 35.328158 35.269300 35.210083 35.150536 35.090707 35.030623 34.970328
34.909846 34.849219 34.788467 34.727628 34.666719 34.605775 34.544809 34.483851
34.422913 34.362020 34.301180 34.240415 34.179730 34.119143 34.058656 33.998283
33.938024 33.877889 33.817876 33.757991 33.698231 33.638598 33.579086 33.519697
33.460422 33.401260 33.342201 33.283242 33.224371 33.165584 33.106868 33.048217
32.989619 32.931065 32.872543 32.814044 32.755556
33.133333 33.223301 33.313283 33.403295 33.493349 33.583463 33.673647 33.763917
33.854282 33.944757 34.035349 34.126071 34.216928 34.307931 34.399081 34.490388
34.581847 34.673468 34.765242 34.857173 34.949249 35.041471 35.133822 35.226299
35.318879 35.411557 35.504302 35.597106 35.689932 35.782766 35.875568 35.968317
36.060968 36.153494 36.245846 36.337992 36.429875 36.521460 36.612686 36.703511
36.793870 36.883719 36.972986 37.061623 37.149556 37.236735 37.323081 37.408542
37.493038 37.576515 37.658893 37.740116 37.820104 37.898802 37.976132 38.052040
38.126448 38.199305 38.270537 38.340096 38.407912 38.473938 38.538111 38.600388
38.660711 38.719041 38.775325 38.829531 38.881610 38.931534 38.979262 39.024769
39.068021 39.108996 39.147666 39.184015 39.218016 39.249660 39.278924 39.305800
39.330272 39.352334 39.371973 39.389184 39.403959 39.416294 39.426185 39.433628
39.438621 39.441163 39.441254 39.438893 39.434082 39.426823 39.417119 39.404973
39.390391 39.373377 39.353940 39.332086 39.307828 39.281173 39.252137 39.220730
39.186974 39.150881 39.112476 39.071777 39.028813 38.983606 38.936191 38.886593
38.834855 38.781005 38.725092 38.667149 38.607231 38.545375 38.481642 38.416074
38.348737 38.279676 38.208963 38.136646 38.062800 37.987477 37.910755 37.832688
37.753356 37.672814 37.591143 37.508399 37.424662 37.339988 37.254457 37.168121
37.081060 36.993323 36.904988 36.816101 36.726734 36.636932 36.546762 36.456264
36.365501 36.274508 36.183343 36.092036 36.000639 35.909178 35.817698 35.726221
35.634786 35.543409 35.452125 35.360944 35.269895 35.178985 35.088236 34.997649
34.907245 34.817019 34.726986 34.637138 34.547486 34.458019 34.368742 34.279643
34.190723 34.101966 34.013371 33.924920 33.836608 33.748418 33.660339 33.572354
33.484452 33.396614 33.308827 33.221072 33.133333
33.511111 33.631080 33.751069 33.871096 33.991184 34.111347 34.231609 34.351981
34.472487 34.593135 34.713945 34.834925 34.956092 35.077449 35.199011 35.320776
35.442756 35.564943 35.687346 35.809951 35.932763 36.055761 36.178945 36.302289
36.425785 36.549401 36.673125 36.796914 36.920752 37.044589 37.168401 37.292131
37.415749 37.539188 37.662414 37.785352 37.907959 38.030156 38.151892 38.273081
38.393667 38.513558 38.632692 38.750972 38.868331 38.984669 39.099914 39.213963
39.326743 39.438147 39.548102 39.656500 39.763266 39.868296 39.971515 40.072819
40.172138 40.269370 40.364448 40.457277 40.547792 40.635904 40.721555 40.804660
40.885169 40.963004 41.038119 41.110446 41.179946 41.246557 41.310246 41.370960
41.428672 41.483338 41.534933 41.583422 41.628787 41.670997 41.710039 41.745888
41.778535 41.807961 41.834159 41.857114 41.876823 41.893275 41.906468 41.916395
41.923055 41.926445 41.926566 41.923417 41.917000 41.907318 41.894373 41.878174
41.858722 41.836029 41.810100 41.780951 41.748589 41.713034 41.674296 41.632402
41.587364 41.539215 41.487973 41.433676 41.376347 41.316033 41.252761 41.186585
41.117540 41.045686 40.971066 40.893747 40.813777 40.731234 40.646169 40.558669
40.468791 40.376626 40.282239 40.185727 40.087158 39.986633 39.884225 39.780038
39.674145 39.566656 39.457643 39.347216 39.235449 39.122449 39.008289 38.893076
38.776879 38.659801 38.541908 38.423300 38.304036 38.184212 38.063883 37.943137
37.822023 37.700622 37.578978 37.457165 37.335219 37.213206 37.091157 36.969129
36.847146 36.725259 36.603484 36.481864 36.360409 36.239155 36.118106 35.997290
35.876707 35.756376 35.636293 35.516471 35.396901 35.277591 35.158526 35.039709
34.921124 34.802767 34.684618 34.566671 34.448904 34.331305 34.213851 34.096528
33.979312 33.862185 33.745123 33.628106 33.511111
33.888889 34.038869 34.188874 34.338930 34.489059 34.639287 34.789634 34.940127
35.090781 35.241622 35.392660 35.543921 35.695410 35.847147 35.999134 36.151389
36.303904 36.456693 36.609744 36.763065 36.916634 37.070455 37.224498 37.378760
37.533202 37.687815 37.842550 37.997390 38.152279 38.307189 38.462056 38.616844
38.771477 38.925913 39.080066 39.233886 39.387276 39.540179 39.692490 39.844142
39.995024 40.145061 40.294134 40.442164 40.589024 40.734631 40.878852 41.021600
41.162742 41.302184 41.439793 41.575476 41.709097 41.840565 41.969747 42.096552
42.220851 42.342558 42.461548 42.577739 42.691015 42.801299 42.908482 43.012495
43.113238 43.210648 43.304637 43.395148 43.482104 43.565456 43.645135 43.721103
43.793300 43.861694 43.926234 43.986896 44.043638 44.096440 44.145270 44.190113
44.230942 44.267747 44.300509 44.329219 44.353865 44.374441 44.390938 44.403353
44.411680 44.415920 44.416071 44.412132 44.404108 44.391999 44.375812 44.355550
44.331226 44.302842 44.270417 44.233957 44.193484 44.149008 44.100559 44.048150
43.991817 43.931579 43.867481 43.799547 43.727829 43.652361 43.573202 43.490393
43.404005 43.314086 43.220716 43.123950 43.023881 42.920570 42.814120 42.704600
42.592120 42.476759 42.358633 42.237826 42.114464 41.988633 41.860464 41.730048
41.597520 41.462973 41.326541 41.188320 41.048444 40.907007 40.764143 40.619942
40.474534 40.328007 40.180485 40.032050 39.882823 39.732877 39.582325 39.431234
39.279711 39.127813 38.975637 38.823233 38.670690 38.518048 38.365386 38.212736
38.060168 37.907705 37.755406 37.603287 37.451398 37.299747 37.148375 36.997282
36.846499 36.696021 36.545872 36.396039 36.246537 36.097351 35.948487 35.799925
35.651665 35.503684 35.355974 35.208510 35.061281 34.914256 34.767421 34.620745
34.474208 34.327780 34.181437 34.035149 33.888889
34.266667 34.446671 34.626706 34.806801 34.986987 35.167290 35.347742 35.528365
35.709191 35.890236 36.071530 36.253084 36.434925 36.617058 36.799506 36.982267
37.165360 37.348772 37.532519 37.716579 37.900960 38.085632 38.270596 38.455810
38.641267 38.826915 39.012740 39.198676 39.384699 39.570735 39.756748 39.942652
40.128402 40.313899 40.499088 40.683860 40.868149 41.051835 41.234842 41.417041
41.598345 41.778617 41.957762 42.135633 42.312131 42.487102 42.660438 42.831983
43.001625 43.169203 43.334606 43.497670 43.658283 43.816284 43.971562 44.123958
44.273366 44.419632 44.562655 44.702288 44.838437 44.970965 45.099784 45.224769
45.345839 45.462882 45.575827 45.684571 45.789055 45.889190 45.984923 46.076177
46.162912 46.245060 46.322588 46.395443 46.463597 46.527007 46.585653 46.639499
46.688532 46.732724 46.772066 46.806537 46.836130 46.860833 46.880641 46.895545
46.905544 46.910633 46.910813 46.906085 46.896449 46.881912 46.862475 46.838149
46.808939 46.774861 46.735922 46.692144 46.643537 46.590131 46.531941 46.469003
46.401338 46.328992 46.251993 46.170396 46.084236 45.993580 45.898472 45.798990
45.695186 45.587151 45.474948 45.358679 45.238416 45.114274 44.986333 44.854722
44.719528 44.580890 44.438904 44.293718 44.145434 43.994206 43.840144 43.683406
43.524104 43.362402 43.198412 43.032299 42.864176 42.694205 42.522497 42.349213
42.174458 41.998389 41.821106 41.642757 41.463437 41.283286 41.102389 40.920879
40.738830 40.556364 40.373547 40.190490 40.007248 39.823920 39.640551 39.457229
39.273989 39.090906 38.908005 38.725351 38.542957 38.360878 38.179118 37.997721
37.816683 37.636036 37.455771 37.275908 37.096432 36.917355 36.738655 36.560335
36.382369 36.204752 36.027455 35.850465 35.673750 35.497293 35.321057 35.145020
34.969147 34.793409 34.617771 34.442202 34.266667
34.644444 34.854488 35.064567 35.274718 35.484973 35.695372 35.905942 36.116720
36.327729 36.539007 36.750570 36.962451 37.174661 37.387229 37.600158 37.813472
38.027163 38.241253 38.455721 38.670582 38.885807 39.101400 39.317320 39.533565
39.750080 39.966852 40.183815 40.400945 40.618161 40.835428 41.052653 41.269789
41.486728 41.703411 41.919717 42.135576 42.350853 42.565464 42.779265 42.992159
43.203990 43.414652 43.623978 43.831854 44.038102 44.242602 44.445170 44.645679
44.843940 45.039823 45.233137 45.423749 45.611469 45.796166 45.977651 46.155796
46.330419 46.501394 46.668549 46.831765 46.990879 47.145781 47.296319 47.442394
47.583865 47.720646 47.852610 47.979681 48.101748 48.218745 48.330575 48.437185
48.538492 48.634452 48.724997 48.810091 48.889678 48.963733 49.032209 49.095089
49.152335 49.203936 49.249864 49.290111 49.324657 49.353497 49.376618 49.394017
49.405688 49.411629 49.411839 49.406318 49.395070 49.378097 49.355408 49.327006
49.292908 49.253118 49.207659 49.156540 49.099790 49.037423 48.969477 48.895972
48.816955 48.732453 48.642526 48.547208 48.446570 48.340658 48.229556 48.113319
47.992046 47.865802 47.734702 47.598823 47.458293 47.313201 47.163688 47.009854
46.851855 46.689800 46.523854 46.354138 46.180826 46.004044 45.823976 45.640753
45.454563 45.265539 45.073874 44.879700 44.683211 44.484537 44.283870 44.081336
43.877122 43.671349 43.464196 43.255776 43.046261 42.835754 42.624417 42.412343
42.199680 41.986511 41.772973 41.559136 41.345123 41.130992 40.916853 40.702751
40.488783 40.274983 40.061431 39.848152 39.635212 39.422624 39.210443 38.998670
38.787348 38.576470 38.366064 38.156117 37.946647 37.737632 37.529079 37.320960
37.113274 36.905988 36.699091 36.492547 36.286337 36.080421 35.874775 35.669358
35.464138 35.259074 35.054132 34.849268 34.644444
35.022222 35.262321 35.502461 35.742683 35.983030 36.223538 36.464250 36.705197
36.946422 37.187947 37.429815 37.672040 37.914661 38.157684 38.401142 38.645032
38.889381 39.134174 39.379431 39.625126 39.871270 40.117823 40.364787 40.612108
40.859778 41.107727 41.355936 41.604321 41.852848 42.101418 42.349984 42.598432
42.846702 43.094661 43.342236 43.589281 43.835707 44.081353 44.326117 44.569825
44.812362 45.053539 45.293233 45.531243 45.767434 46.001599 46.233594 46.463205
46.690282 46.914608 47.136029 47.354327 47.569348 47.780875 47.988755 48.192778
48.392795 48.588602 48.780059 48.966971 49.149208 49.326587 49.498988 49.666245
49.828248 49.984847 50.135947 50.281412 50.421162 50.555078 50.683093 50.805104
50.921056 51.030864 51.134484 51.231845 51.322913 51.407633 51.485978 51.557904
51.623393 51.682412 51.734948 51.780976 51.820488 51.853469 51.879912 51.899808
51.913155 51.919948 51.920187 51.913873 51.901008 51.881598 51.855647 51.823167
51.784163 51.738657 51.686655 51.628186 51.563263 51.491922 51.414181 51.330089
51.239671 51.142987 51.040071 50.930996 50.815807 50.694593 50.567410 50.434361
50.295517 50.150997 50.000883 49.845315 49.684386 49.518252 49.347021 49.170863
48.989899 48.804313 48.614238 48.419870 48.221350 48.018885 47.812624 47.602781
47.389508 47.173026 46.953488 46.731115 46.506062 46.278549 46.048726 45.816808
45.582941 45.347334 45.110123 44.871509 44.631618 44.390641 44.148690 43.905945
43.662505 43.418535 43.174123 42.929417 42.684491 42.439478 42.194438 41.949487
41.704671 41.460092 41.215782 40.971825 40.728242 40.485101 40.242411 40.000226
39.758543 39.517401 39.276788 39.036732 38.797209 38.558234 38.319778 38.081843
37.844395 37.607425 37.370892 37.134781 36.899045 36.663661 36.428580 36.193771
35.959184 35.724783 35.490519 35.256348 35.022222
35.400000 35.670172 35.940391 36.210706 36.481160 36.751803 37.022672 37.293819
37.565274 37.837084 38.109274 38.381887 38.654939 38.928469 39.202480 39.477006
39.752040 40.027608 40.303687 40.580296 40.857399 41.135004 41.413059 41.691560
41.970441 42.249684 42.529204 42.808972 43.088886 43.368901 43.648895 43.928810
44.208507 44.487910 44.766862 45.045272 45.322967 45.599838 45.875696 46.150418
46.423799 46.695703 46.965910 47.234273 47.500560 47.764613 48.026193 48.285132
48.541185 48.794180 49.043869 49.290077 49.532556 49.771131 50.005560 50.235671
50.461228 50.682067 50.897962 51.108758 51.314242 51.514272 51.708649 51.897244
52.079878 52.256436 52.426756 52.590740 52.748244 52.899186 53.043443 53.180945
53.311588 53.435319 53.552049 53.661737 53.764313 53.859744 53.947976 54.028986
54.102730 54.169194 54.228345 54.280174 54.324658 54.361791 54.391559 54.413959
54.428983 54.436630 54.436898 54.429788 54.415305 54.393450 54.364234 54.327661
54.283749 54.232505 54.173954 54.108106 54.034998 53.954644 53.867092 53.772364
53.670519 53.561590 53.445651 53.322743 53.192958 53.056351 52.913028 52.763061
52.606574 52.443653 52.274442 52.099042 51.917617 51.730282 51.537221 51.338564
51.134512 50.925207 50.710866 50.491645 50.267772 50.039413 49.806806 49.570123
49.329611 49.085445 48.837875 48.587077 48.333301 48.076721 47.817585 47.556059
47.292387 47.026727 46.759313 46.490293 46.219889 45.948237 45.675545 45.401936
45.127602 44.852651 44.577257 44.301514 44.025579 43.749528 43.473501 43.197558
42.921821 42.646334 42.371200 42.096449 41.822168 41.548370 41.275125 41.002434
40.730351 40.458865 40.188014 39.917776 39.648174 39.379179 39.110799 38.842996
38.575768 38.309070 38.042887 37.777171 37.511898 37.247014 36.982486 36.718260
36.454295 36.190536 35.926937 35.663442 35.400000
35.777778 36.078042 36.378361 36.678786 36.979372 37.280166 37.581224 37.882587
38.184309 38.486421 38.788977 39.091999 39.395534 39.699593 40.004220 40.309411
40.615202 40.921578 41.228563 41.536127 41.844286 42.152991 42.462246 42.771985
43.082199 43.392803 43.703772 44.015003 44.326455 44.638005 44.949593 45.261078
45.572383 45.883345 46.193870 46.503774 46.812946 47.121183 47.428356 47.734244
48.038703 48.341494 48.642458 48.941343 49.237976 49.532093 49.823512 50.111960
50.397246 50.679093 50.957305 51.231603 51.501791 51.767592 52.028813 52.285182
52.536512 52.782544 53.023096 53.257924 53.486860 53.709675 53.926214 54.136269
54.339701 54.536321 54.726010 54.908600 55.083987 55.252027 55.412635 55.565686
55.711112 55.848809 55.978724 56.100772 56.214914 56.321081 56.419245 56.509354
56.591388 56.665306 56.731098 56.788733 56.838206 56.879496 56.912599 56.937504
56.954210 56.962711 56.963007 56.955101 56.938994 56.914692 56.882200 56.841532
56.792693 56.735705 56.670577 56.597342 56.516012 56.426631 56.329219 56.223832
56.110500 55.989295 55.860256 55.723472 55.578998 55.426940 55.267368 55.100410
54.926151 54.744741 54.556283 54.360949 54.158858 53.950204 53.735125 53.513835
53.286488 53.053317 52.814490 52.570256 52.320796 52.066373 51.807176 51.543478
51.275474 51.003444 50.727586 50.448180 50.165424 49.879597 49.590892 49.299584
49.005855 48.709974 48.412113 48.112526 47.811375 47.508898 47.205242 46.900631
46.595192 46.289131 45.982560 45.675666 45.368540 45.061349 44.754168 44.447144
44.140332 43.833859 43.527764 43.222153 42.917049 42.612537 42.308627 42.005385
41.702805 41.400936 41.099761 40.799311 40.499557 40.200516 39.902149 39.604458
39.307396 39.010954 38.715076 38.419742 38.124894 37.830497 37.536492 37.242838
36.949470 36.656340 36.363386 36.070552 35.777778
36.155556 36.485934 36.816371 37.146930 37.477665 37.808641 38.139904 38.471519
38.803525 39.135984 39.468926 39.802408 40.136449 40.471101 40.806369 41.142299
41.478880 41.816149 42.154080 42.492698 42.831960 43.171878 43.512391 43.853496
44.195112 44.537220 44.879719 45.222572 45.565656 45.908916 46.252207 46.595454
46.938490 47.281219 47.623452 47.965075 48.305874 48.645716 48.984368 49.321676
49.657387 49.991331 50.323238 50.652920 50.980094 51.304558 51.626017 51.944261
52.258983 52.569969 52.876908 53.179581 53.477680 53.770984 54.059192 54.342087
54.619376 54.890853 55.156237 55.415335 55.667881 55.913699 56.152544 56.384254
56.608610 56.825468 57.034632 57.235980 57.429339 57.614608 57.791639 57.960348
58.120612 58.272366 58.415507 58.549987 58.675725 58.792684 58.900801 59.000051
59.090386 59.171791 59.244230 59.307695 59.362159 59.407619 59.444059 59.471477
59.489865 59.499222 59.499547 59.490842 59.473109 59.446353 59.410583 59.365803
59.312033 59.249279 59.177568 59.096912 59.007349 58.908896 58.801605 58.685501
58.560653 58.427097 58.284918 58.134166 57.974947 57.807328 57.631436 57.447354
57.255236 57.055183 56.847372 56.631925 56.409045 56.178873 55.941635 55.697492
55.446693 55.189417 54.925930 54.656429 54.381197 54.100441 53.814459 53.523467
53.227771 52.927592 52.623242 52.314941 52.003001 51.687640 51.369167 51.047791
50.723813 50.397433 50.068940 49.738520 49.406447 49.072891 48.738109 48.402254
48.065562 47.728166 47.390283 47.052027 46.713590 46.375065 46.036625 45.698341
45.360363 45.022744 44.685608 44.348992 44.012999 43.677645 43.343014 43.009105
42.675983 42.343631 42.012095 41.681346 41.351410 41.022248 40.693870 40.366227
40.039314 39.713073 39.387486 39.062489 38.738052 38.414107 38.090613 37.767500
37.444717 37.122193 36.799870 36.477679 36.155556
36.533333 36.893845 37.254425 37.615136 37.976050 38.337223 38.698726 39.060610
39.422944 39.785767 40.149146 40.513110 40.877719 41.242988 41.608972 41.975671
42.343128 42.711329 43.080306 43.450024 43.820505 44.191693 44.563595 44.936134
45.309299 45.682994 46.057187 46.431757 46.806656 47.181738 47.556932 47.932068
48.307053 48.681693 49.055872 49.429371 49.802053 50.173675 50.544077 50.912992
51.280243 51.645541 52.008690 52.369382 52.727405 53.082437 53.434251 53.782516
54.126994 54.467347 54.803331 55.134605 55.460926 55.781956 56.097453 56.407087
56.710624 57.007748 57.298235 57.581787 57.858197 58.127185 58.388564 58.642079
58.887563 59.124787 59.353607 59.573820 59.785307 59.987891 60.181475 60.365911
60.541120 60.706982 60.863437 61.010386 61.147788 61.275564 61.393685 61.502092
61.600768 61.689668 61.768782 61.838079 61.897553 61.947185 61.986973 62.016904
62.036979 62.047192 62.047545 62.038040 62.018677 61.989464 61.950404 61.901512
61.842791 61.774267 61.695944 61.607858 61.510022 61.402481 61.285258 61.158413
61.021978 60.876035 60.720627 60.555856 60.381784 60.198535 60.006190 59.804900
59.594764 59.375962 59.148616 58.912931 58.669054 58.417217 58.157588 57.890427
57.615921 57.334355 57.045936 56.750967 56.449672 56.142372 55.829302 55.510795
55.187094 54.858540 54.525379 54.187955 53.846512 53.501392 53.152833 52.801171
52.446633 52.089545 51.730119 51.368666 51.005382 50.640561 50.274379 49.907108
49.538905 49.170018 48.800583 48.430824 48.060854 47.690872 47.320969 46.951318
46.581988 46.213129 45.844786 45.477086 45.110054 44.743791 44.378307 44.013678
43.649896 43.287018 42.925019 42.563935 42.203730 41.844420 41.485957 41.128340
40.771512 40.415456 40.060106 39.705433 39.351364 38.997859 38.644840 38.292257
37.940030 37.588100 37.236387 36.884823 36.533333
36.911111 37.301779 37.692519 38.083410 38.474518 38.865922 39.257682 39.649875
40.042553 40.435791 40.829627 41.224132 41.619332 42.015291 42.412020 42.809572
43.207942 43.607174 44.007241 44.408175 44.809930 45.212520 45.615877 46.020000
46.424796 46.830245 47.236228 47.642705 48.049531 48.456642 48.863868 49.271121
49.678203 50.085002 50.491293 50.896938 51.301685 51.705374 52.107725 52.508555
52.907560 53.304533 53.699152 54.091188 54.480300 54.866243 55.248660 55.627295
56.001781 56.371850 56.737132 57.097355 57.452148 57.801241 58.144269 58.480967
58.810982 59.134062 59.449867 59.758162 60.058629 60.351053 60.635140 60.910697
61.177461 61.435261 61.683863 61.923125 62.152843 62.372898 62.583118 62.783408
62.973626 63.153700 63.323513 63.483013 63.632109 63.770765 63.898909 64.016521
64.123547 64.219976 64.305769 64.380921 64.445407 64.499225 64.542359 64.574811
64.596573 64.607644 64.608025 64.597716 64.576723 64.545045 64.502696 64.449675
64.386003 64.311683 64.226744 64.131194 64.025073 63.908397 63.781222 63.643572
63.495520 63.337106 63.168424 62.989529 62.800541 62.601533 62.392653 62.173997
61.945740 61.708005 61.460997 61.204862 60.939838 60.666096 60.383903 60.093456
59.795051 59.488905 59.175340 58.854593 58.527007 58.192835 57.852436 57.506074
57.154120 56.796842 56.434619 56.067721 55.696524 55.321294 54.942404 54.560110
54.174775 53.786641 53.396056 53.003247 52.608541 52.212145 51.814367 51.415389
51.015496 50.614846 50.213697 49.812184 49.410536 49.008865 48.607372 48.206143
47.805353 47.405063 47.005420 46.606464 46.208316 45.810993 45.414591 45.019107
44.624614 44.231092 43.838589 43.447070 43.056563 42.667019 42.278445 41.890781
41.504018 41.118086 40.732958 40.348558 39.964846 39.581739 39.199186 38.817100
38.435418 38.054055 37.672939 37.291984 36.911111
37.288889 37.709732 38.130658 38.551744 38.973077 39.394728 39.816782 40.239301
40.662370 41.086039 41.510389 41.935457 42.361318 42.787993 43.215548 43.643988
44.073367 44.503672 44.934943 45.367145 45.800305 46.234362 46.669325 47.105111
47.541708 47.979005 48.416970 48.855464 49.294430 49.733701 50.173195 50.612714
51.052151 51.491278 51.929961 52.367941 52.805056 53.241020 53.675644 54.108613
54.539714 54.968606 55.395052 55.818689 56.239259 56.656382 57.069781 57.479062
57.883937 58.284003 58.678963 59.068412 59.452053 59.829481 60.200403 60.564427
60.921267 61.270547 61.611996 61.945259 62.270086 62.586147 62.893217 63.190994
63.479280 63.757807 64.026405 64.284840 64.532970 64.770595 64.997602 65.213824
65.419173 65.613515 65.796783 65.968872 66.129737 66.279296 66.417520 66.544348
66.659765 66.763726 66.856226 66.937234 67.006749 67.064752 67.111244 67.146215
67.169667 67.181596 67.182004 67.170893 67.148262 67.114122 67.068470 67.011322
66.942679 66.862563 66.770978 66.667959 66.553513 66.427689 66.290504 66.142025
65.982280 65.811358 65.629303 65.436229 65.232200 65.017356 64.791789 64.555667
64.309107 64.052314 63.785430 63.508694 63.222278 62.926454 62.621423 62.307489
61.984880 61.653931 61.314892 60.968124 60.613897 60.252594 59.884500 59.510013
59.129428 58.743152 58.351483 57.954833 57.553497 57.147884 56.738282 56.325090
55.908585 55.489151 55.067047 54.642641 54.216168 53.787975 53.358274 52.927384
52.495495 52.062896 51.629749 51.196316 50.762730 50.329223 49.895902 49.462968
49.030501 48.598672 48.167535 47.737233 47.307795 46.879336 46.451863 46.025464
45.600126 45.175911 44.752788 44.330796 43.909887 43.490079 43.071311 42.653578
42.236810 41.820985 41.406022 40.991882 40.578479 40.165761 39.753634 39.342036
38.930870 38.520064 38.109522 37.699161 37.288889
37.666667 38.117706 38.568835 39.020144 39.471717 39.923648 40.376010 40.828898
41.282373 41.736527 42.191409 42.647105 43.103649 43.561119 44.019531 44.478952
44.939379 45.400868 45.863392 46.326991 46.791616 47.257288 47.723933 48.191551
48.660040 49.129379 49.599435 50.070161 50.541397 51.013067 51.484979 51.957030
52.428993 52.900738 53.372005 53.842634 54.312332 54.780909 55.248042 55.713511
56.176963 56.638153 57.096699 57.552332 58.004649 58.453358 58.898037 59.338379
59.773948 60.204426 60.629372 61.048460 61.461249 61.867415 62.266525 62.658262
63.042205 63.418052 63.785403 64.143975 64.493396 64.833406 65.163665 65.483941
65.793928 66.093428 66.382170 66.659988 66.926651 67.182022 67.425909 67.658206
67.878755 68.087478 68.284249 68.469015 68.641678 68.802205 68.950524 69.086616
69.210429 69.321957 69.421163 69.508048 69.582589 69.644789 69.694635 69.732131
69.757271 69.770059 69.770494 69.758577 69.734312 69.697700 69.648750 69.587460
69.513849 69.427914 69.329684 69.219160 69.096383 68.961362 68.814153 68.654777
68.483310 68.299789 68.104315 67.896945 67.677807 67.446983 67.204635 66.950871
66.685888 66.409825 66.122916 65.825332 65.517346 65.199160 64.871083 64.533349
64.186304 63.830208 63.465438 63.092279 62.711136 62.322312 61.926233 61.523216
61.113700 60.698009 60.276591 59.849771 59.417994 58.981580 58.540970 58.096471
57.648510 57.197379 56.743486 56.287100 55.828608 55.368254 54.906397 54.443255
53.979157 53.514292 53.048957 52.583311 52.117619 51.652009 51.186713 50.721831
50.257561 49.793974 49.331237 48.869393 48.408578 47.948810 47.490195 47.032728
46.576488 46.121449 45.667662 45.215083 44.763739 44.313571 43.864582 43.416700
42.969909 42.524125 42.079312 41.635379 41.192276 40.749902 40.308194 39.867050
39.426391 38.986116 38.546137 38.106352 37.666667
38.044444 38.525699 39.007052 39.488599 39.970442 40.452666 40.935374 41.418643
41.902573 42.387227 42.872702 43.359045 43.846347 44.334636 44.823994 45.314429
45.806011 46.298727 46.792629 47.287681 47.783917 48.281276 48.779769 49.279307
49.779880 50.281365 50.783728 51.286814 51.790561 52.294779 52.799377 53.304131
53.808917 54.313475 54.817651 55.321148 55.823779 56.325213 56.825229 57.323464
57.819666 58.313440 58.804505 59.292440 59.776937 60.257552 60.733956 61.205688
61.672403 62.133628 62.589009 63.038068 63.480450 63.915680 64.343407 64.763168
65.174624 65.577331 65.970969 66.355119 66.729487 67.093686 67.447452 67.790436
68.122406 68.443054 68.752183 69.049528 69.334927 69.608157 69.869092 70.117547
70.353428 70.576590 70.786967 70.984446 71.168985 71.340500 71.498968 71.644331