<?xml version="1.0"?>
<VTKFile type="ImageData" version="0.1" byte_order="LittleEndian">
  <ImageData WholeExtent="0 180 0 180 0 0" Origin="0.0 0.0 0.0" Spacing="0.05 0.05 1">
    <Piece Extent="0 180 0 180 0 0">
      <PointData Scalars="Temperature">
        <DataArray type="Float32" Name="Temperature" format="ascii">
32.000000 32.000000 32.000000 32.000000 32.000000 32.000000 32.000000 32.000000 32.000000 32.000000 32.000000 32.000000 32.000000 32.000000 32.000000 32.000000 32.000000 32.000000 32.000000 32.000000 32.000000 32.000000 32.000000 32.000000 32.000000 32.000000 32.000000 32.000000 32.000000 32.000000 32.000000 32.000000 32.000000 32.000000 32.000000 32.000000 32.000000 32.000000 32.000000 32.000000 32.000000 32.000000 32.000000 32.000000 32.000000 32.000000 32.000000 32.000000 32.000000 32.000000 32.000000 32.000000 32.000000 32.000000 32.000000 32.000000 32.000000 32.000000 32.000000 32.000000 32.000000 32.000000 32.000000 32.000000 32.000000 32.000000 32.000000 32.000000 32.000000 32.000000 32.000000 32.000000 32.000000 32.000000 32.000000 32.000000 32.000000 32.000000 32.000000 32.000000 32.000000 32.000000 32.000000 32.000000 32.000000 32.000000 32.000000 32.000000 32.000000 32.000000 32.000000 32.000000 32.000000 32.000000 32.000000 32.000000 32.000000 32.000000 32.000000 32.000000 32.000000 32.000000 32.000000 32.000000 32.000000 32.000000 32.000000 32.000000 32.000000 32.000000 32.000000 32.000000 32.000000 32.000000 32.000000 32.000000 32.000000 32.000000 32.000000 32.000000 32.000000 32.000000 32.000000 32.000000 32.000000 32.000000 32.000000 32.000000 32.000000 32.000000 32.000000 32.000000 32.000000 32.000000 32.000000 32.000000 32.000000 32.000000 32.000000 32.000000 32.000000 32.000000 32.000000 32.000000 32.000000 32.000000 32.000000 32.000000 32.000000 32.000000 32.000000 32.000000 32.000000 32.000000 32.000000 32.000000 32.000000 32.000000 32.000000 32.000000 32.000000 32.000000 32.000000 32.000000 32.000000 32.000000 32.000000 32.000000 32.000000 32.000000 32.000000 32.000000 32.000000 32.000000 32.000000 32.000000 32.000000 32.000000 32.000000 32.000000 32.000000
32.377778 32.367668 32.357589 32.347575 32.337653 32.327861 32.318220 32.308773 32.299535 32.290552 32.281833 32.273429 32.265340 32.257622 32.250268 32.243334 32.236810 32.230753 32.225144 32.220044 32.215425 32.211351 32.207785 32.204795 32.202333 32.200470 32.199149 32.198443 32.198286 32.198753 32.199766 32.201406 32.203583 32.206381 32.209699 32.213624 32.218045 32.223051 32.228521 32.234547 32.241000 32.247971 32.255324 32.263153 32.271313 32.279900 32.288762 32.297997 32.307448 32.317214 32.327134 32.337308 32.347572 32.358027 32.368508 32.379116 32.389688 32.400324 32.410862 32.421403 32.431789 32.442119 32.452240 32.462251 32.472004 32.481597 32.490888 32.499972 32.508718 32.517216 32.525345 32.533190 32.540640 32.547775 32.554496 32.560875 32.566825 32.572412 32.577559 32.582324 32.586643 32.590566 32.594039 32.597103 32.599717 32.601912 32.603658 32.604976 32.605849 32.606287 32.606284 32.605840 32.604961 32.603636 32.601884 32.599682 32.597060 32.593988 32.590506 32.586573 32.582244 32.577466 32.572306 32.566705 32.560739 32.554342 32.547603 32.540446 32.532972 32.525101 32.516944 32.508414 32.499634 32.490512 32.481180 32.471543 32.461742 32.451678 32.441499 32.431107 32.420654 32.410040 32.399424 32.388704 32.378043 32.367338 32.356754 32.346190 32.335809 32.325511 32.315459 32.305553 32.295955 32.286565 32.277539 32.268781 32.260441 32.252425 32.244876 32.237700 32.231036 32.224791 32.219093 32.213854 32.209192 32.205021 32.201450 32.198395 32.195955 32.194049 32.192766 32.192027 32.191912 32.192343 32.193391 32.194981 32.197173 32.199897 32.203201 32.207019 32.211390 32.216249 32.221628 32.227466 32.233784 32.240524 32.247700 32.255257 32.263202 32.271482 32.280097 32.288997 32.298176 32.307588 32.317220 32.327028 32.336995 32.347081 32.357263 32.367504 32.377778
32.755556 32.735348 32.715206 32.695187 32.675364 32.655784 32.636529 32.617635 32.599192 32.581224 32.563826 32.547011 32.530882 32.515436 32.500782 32.486905 32.473919 32.461792 32.450645 32.440430 32.431274 32.423109 32.416069 32.410069 32.405248 32.401501 32.398972 32.397538 32.397348 32.398257 32.400422 32.403674 32.408179 32.413746 32.420544 32.428364 32.437379 32.447360 32.458485 32.470505 32.483604 32.497514 32.512423 32.528047 32.544577 32.561716 32.579658 32.598092 32.617217 32.636712 32.656777 32.677087 32.697842 32.718712 32.739901 32.761077 32.782444 32.803675 32.824971 32.846011 32.866997 32.887615 32.908064 32.928042 32.947745 32.966886 32.985655 33.003780 33.021446 33.038400 33.054819 33.070468 33.085514 33.099746 33.113319 33.126042 33.138057 33.149198 33.159592 33.169094 33.177816 33.185637 33.192650 33.198759 33.204037 33.208413 33.211939 33.214567 33.216329 33.217202 33.217196 33.216312 33.214537 33.211896 33.208356 33.203967 33.198673 33.192548 33.185517 33.177676 33.168933 33.159407 33.148987 33.137817 33.125770 33.113012 33.099400 33.085126 33.070032 33.054331 33.037855 33.020839 33.003104 32.984904 32.966053 32.946823 32.927022 32.906938 32.886375 32.865633 32.844513 32.823328 32.801876 32.780478 32.758930 32.737561 32.716167 32.695077 32.674088 32.653530 32.633201 32.613427 32.594008 32.575263 32.556995 32.539513 32.522623 32.506624 32.491323 32.477005 32.463483 32.451024 32.439446 32.428997 32.419501 32.411188 32.403885 32.397803 32.392774 32.388988 32.386285 32.384832 32.384475 32.385362 32.387342 32.390545 32.394826 32.400294 32.406810 32.414463 32.423123 32.432858 32.443544 32.455233 32.467805 32.481297 32.495595 32.510718 32.526561 32.543128 32.560318 32.578123 32.596447 32.615272 32.634508 32.654122 32.674034 32.694201 32.714547 32.735021 32.755556
33.133333 33.103057 33.072872 33.042885 33.013173 32.983853 32.954989 32.926709 32.899058 32.872177 32.846092 32.820953 32.796768 32.773696 32.751723 32.731020 32.711548 32.693486 32.676773 32.661596 32.647868 32.635787 32.625235 32.616421 32.609199 32.603785 32.600004 32.598081 32.597811 32.599425 32.602689 32.607843 32.614620 32.623268 32.633488 32.645538 32.659087 32.674400 32.691117 32.709510 32.729191 32.750437 32.772835 32.796668 32.821500 32.847620 32.874570 32.902644 32.931369 32.961042 32.991177 33.022076 33.053244 33.084985 33.116801 33.148998 33.181079 33.213349 33.245320 33.277294 33.308794 33.340120 33.370810 33.401160 33.430726 33.459799 33.487958 33.515485 33.541986 33.567731 33.592355 33.616117 33.638680 33.660287 33.680636 33.699951 33.717963 33.734875 33.750453 33.764876 33.777947 33.789818 33.800327 33.809599 33.817507 33.824148 33.829431 33.833419 33.836060 33.837385 33.837376 33.836033 33.833374 33.829366 33.824064 33.817401 33.809470 33.800173 33.789638 33.777737 33.764634 33.750175 33.734558 33.717603 33.699543 33.680176 33.659768 33.638097 33.615463 33.591624 33.566914 33.541075 33.514471 33.486832 33.458550 33.429342 33.399630 33.369122 33.338260 33.306748 33.275047 33.242855 33.210650 33.178129 33.145778 33.113292 33.081167 33.049097 33.017578 32.986307 32.955776 32.925684 32.896518 32.867978 32.840538 32.813904 32.788533 32.764136 32.741150 32.719293 32.698977 32.679926 32.662529 32.646515 32.632245 32.619455 32.608477 32.599056 32.591493 32.585540 32.581468 32.579038 32.578488 32.579589 32.582549 32.587146 32.593559 32.601574 32.611341 32.622656 32.635639 32.650095 32.666119 32.683523 32.702376 32.722502 32.743942 32.766531 32.790287 32.815054 32.840830 32.867466 32.894942 32.923119 32.951958 32.981329 33.011179 33.041387 33.071883 33.102560 33.133333
33.511111 33.470801 33.430623 33.390691 33.351155 33.312108 33.273716 33.236051 33.199292 33.163489 33.128836 33.095356 33.063256 33.032532 33.003405 32.975842 32.950073 32.926036 32.903974 32.883788 32.865736 32.849683 32.835898 32.824208 32.814896 32.807749 32.803060 32.800577 32.800606 32.802850 32.807628 32.814603 32.824102 32.835746 32.849874 32.866066 32.884669 32.905222 32.928083 32.952753 32.979598 33.008081 33.038579 33.070520 33.104288 33.139283 33.175895 33.213501 33.252495 33.292234 33.333118 33.374491 33.416756 33.459249 33.502374 33.545469 33.588939 33.632125 33.675432 33.718213 33.760871 33.802776 33.844327 33.884917 33.924938 33.963812 34.001921 34.038720 34.074578 34.108987 34.142300 34.174050 34.204570 34.233435 34.260957 34.286754 34.311112 34.333695 34.354759 34.374016 34.391688 34.407534 34.421741 34.434116 34.444807 34.453670 34.460811 34.466133 34.469703 34.471471 34.471459 34.469667 34.466073 34.460725 34.453557 34.444666 34.433944 34.421536 34.407293 34.391408 34.373693 34.354389 34.333273 34.310632 34.286211 34.260343 34.232744 34.203793 34.173178 34.141325 34.107897 34.073364 34.037368 34.000420 33.962147 33.923094 33.882878 33.842077 33.800296 33.758143 33.715216 33.672146 33.628527 33.585006 33.541176 33.497696 33.454158 33.411226 33.368494 33.326624 33.285213 33.244916 33.205333 33.167106 33.129840 33.094159 33.059673 33.026980 32.995700 32.966401 32.938709 32.913163 32.889394 32.867906 32.848342 32.831164 32.816026 32.803351 32.792803 32.784764 32.778909 32.775577 32.774456 32.775843 32.779437 32.785496 32.793729 32.804354 32.817093 32.832125 32.849184 32.868412 32.889554 32.912718 32.937661 32.964456 32.992874 33.022956 33.054485 33.087472 33.121714 33.157194 33.193721 33.231253 33.269613 33.308736 33.348456 33.388690 33.429285 33.470137 33.511111
33.888889 33.838602 33.788471 33.738671 33.689333 33.640656 33.592744 33.545814 33.499943 33.455364 33.412125 33.370477 33.330433 33.292262 33.255941 33.221753 33.189639 33.159897 33.132426 33.107541 33.085096 33.065421 33.048325 33.034154 33.022666 33.014224 33.008535 33.005976 33.006203 33.009609 33.015796 33.025169 33.037279 33.052546 33.070466 33.091470 33.115006 33.141516 33.170397 33.202103 33.235982 33.272501 33.310963 33.351844 33.394410 33.439142 33.485274 33.533296 33.582412 33.633119 33.684601 33.737359 33.790564 33.844722 33.898997 33.953898 34.008592 34.063587 34.118062 34.172522 34.226166 34.279496 34.331733 34.383374 34.433675 34.483119 34.531003 34.577796 34.622838 34.666583 34.708416 34.748772 34.787087 34.823769 34.858310 34.891087 34.921649 34.950338 34.976762 35.001221 35.023384 35.043509 35.061324 35.077040 35.090444 35.101697 35.110649 35.117408 35.121883 35.124128 35.124113 35.121838 35.117333 35.110542 35.101557 35.090268 35.076825 35.061069 35.043209 35.023035 35.000818 34.976299 34.949810 34.921050 34.890408 34.857543 34.822904 34.786116 34.747682 34.707197 34.665221 34.621320 34.576107 34.529126 34.481037 34.431369 34.380826 34.328920 34.276396 34.222756 34.168777 34.113954 34.059089 34.003675 33.948531 33.893149 33.838359 33.783653 33.729863 33.676484 33.624343 33.572939 33.523086 33.474288 33.427339 33.381749 33.338286 33.296466 33.257024 33.219487 33.184549 33.151747 33.121733 33.094054 33.069317 33.047079 33.027897 33.011343 32.997922 32.987218 32.979685 32.974921 32.973327 32.974517 32.978839 32.985921 32.996061 33.008902 33.024693 33.043091 33.064297 33.087985 33.114309 33.142959 33.174045 33.207272 33.242711 33.280082 33.319417 33.360451 33.403181 33.447358 33.492946 33.539713 33.587592 33.636367 33.685945 33.736125 33.786790 33.837758 33.888889
34.266667 34.206464 34.146461 34.086831 34.027801 33.969514 33.912218 33.856025 33.801206 33.747838 33.696212 33.646367 33.598615 33.552952 33.509711 33.468843 33.430700 33.395185 33.362669 33.333004 33.306578 33.283191 33.263249 33.246494 33.233351 33.223500 33.217388 33.214632 33.215695 33.220132 33.228423 33.240059 33.255536 33.274281 33.296807 33.322476 33.351816 33.384128 33.419953 33.458535 33.500426 33.544814 33.592264 33.641914 33.694339 33.748633 33.805381 33.863638 33.923997 33.985485 34.048701 34.112652 34.177942 34.243567 34.310134 34.376637 34.443685 34.510280 34.577031 34.642958 34.708666 34.773201 34.837164 34.899635 34.961205 35.020999 35.079593 35.136161 35.191262 35.244126 35.295288 35.344039 35.390886 35.435185 35.477408 35.516979 35.554329 35.588954 35.621240 35.650753 35.677829 35.702106 35.723867 35.742821 35.759192 35.772763 35.783696 35.791845 35.797310 35.800017 35.799999 35.797256 35.791755 35.783567 35.772594 35.758981 35.742564 35.723560 35.701746 35.677410 35.650269 35.620685 35.588321 35.553609 35.516163 35.476487 35.434148 35.389721 35.342732 35.293825 35.242492 35.189440 35.134134 35.077341 35.018502 34.958439 34.896578 34.833789 34.769482 34.704574 34.638464 34.572102 34.504883 34.437785 34.370198 34.303117 34.235933 34.169649 34.103657 34.038960 33.974954 33.912629 33.851386 33.792198 33.734470 33.679147 33.625644 33.574868 33.526243 33.480632 33.437471 33.397574 33.360389 33.326675 33.295893 33.268745 33.244705 33.224415 33.207365 33.194133 33.184227 33.178161 33.175459 33.176573 33.181045 33.189264 33.200791 33.215953 33.234328 33.256187 33.281126 33.309358 33.340499 33.374707 33.411617 33.451338 33.493522 33.538231 33.585134 33.634250 33.685267 33.738163 33.792645 33.848653 33.905913 33.964331 34.023655 34.083756 34.144404 34.205444 34.266667
34.644444 34.574410 34.504595 34.435251 34.366563 34.298810 34.232143 34.166868 34.103095 34.041155 33.981117 33.923335 33.867830 33.814982 33.764760 33.717568 33.673320 33.632441 33.594789 33.560810 33.530300 33.503727 33.480822 33.462074 33.447146 33.436549 33.429872 33.427649 33.429396 33.435666 33.445900 33.460672 33.479346 33.502515 33.529470 33.560818 33.595778 33.634975 33.677555 33.724159 33.773864 33.827326 33.883562 33.943238 34.005315 34.070471 34.137619 34.207446 34.278827 34.352457 34.427181 34.503700 34.580841 34.659310 34.737927 34.817401 34.896555 34.976099 35.054872 35.133582 35.211093 35.288109 35.363532 35.438056 35.510629 35.581931 35.650968 35.718400 35.783295 35.846291 35.906523 35.964599 36.019730 36.072486 36.122156 36.169268 36.213192 36.254405 36.292360 36.327481 36.359302 36.388187 36.413755 36.436303 36.455535 36.471677 36.484518 36.494211 36.500629 36.503849 36.503828 36.500566 36.494105 36.484368 36.471480 36.455288 36.436003 36.413398 36.387767 36.358813 36.326917 36.291713 36.253667 36.212352 36.168318 36.121082 36.071276 36.018370 35.963075 35.904817 35.844385 35.781171 35.716036 35.648341 35.579017 35.507402 35.434488 35.359595 35.283771 35.206320 35.128339 35.049122 34.969803 34.889673 34.809889 34.729741 34.650403 34.571165 34.493206 34.415817 34.340171 34.265566 34.193154 34.122239 34.053948 33.987592 33.924258 33.863268 33.805661 33.750773 33.699586 33.651448 33.607282 33.566450 33.529808 33.496734 33.468014 33.443042 33.422533 33.405900 33.393782 33.385612 33.381955 33.382263 33.387028 33.395723 33.408768 33.425656 33.446737 33.471527 33.500308 33.532616 33.568668 33.608024 33.650840 33.696697 33.745693 33.797430 33.851953 33.908887 33.968228 34.029620 34.093014 34.158079 34.224720 34.292631 34.361681 34.431584 34.502174 34.573195 34.644444
35.022222 34.942440 34.862930 34.783924 34.705729 34.628539 34.552692 34.478337 34.405842 34.335310 34.267138 34.201377 34.138451 34.078355 34.021540 33.967941 33.918036 33.871694 33.829418 33.791009 33.756996 33.727107 33.701894 33.681008 33.665028 33.653523 33.647096 33.645233 33.648560 33.656479 33.669638 33.687351 33.710287 33.737677 33.770208 33.807024 33.848833 33.894695 33.945336 33.999734 34.058633 34.120935 34.187399 34.256860 34.330088 34.405858 34.484952 34.566096 34.650080 34.735589 34.823423 34.912241 35.002846 35.093883 35.186159 35.278319 35.371171 35.463370 35.555726 35.646917 35.737750 35.826939 35.915283 36.001547 36.086516 36.169014 36.249808 36.327793 36.403710 36.476530 36.546966 36.614069 36.678516 36.739446 36.797491 36.851880 36.903192 36.950753 36.995081 37.035597 37.072752 37.106064 37.135911 37.161908 37.184355 37.202963 37.217950 37.229122 37.236612 37.240323 37.240299 37.236540 37.229001 37.217778 37.202738 37.184074 37.161566 37.135503 37.105584 37.072194 37.034952 36.994342 36.949909 36.902233 36.850793 36.796264 36.738065 36.676963 36.612328 36.545017 36.474353 36.401283 36.325091 36.246807 36.165684 36.082829 35.997471 35.910784 35.821981 35.732295 35.640926 35.549155 35.456176 35.363306 35.269734 35.176804 35.083704 34.991789 34.900249 34.810437 34.721549 34.634924 34.549762 34.467377 34.386976 34.309834 34.235169 34.164207 34.096177 34.032244 33.971653 33.915501 33.863048 33.815318 33.771587 33.732799 33.698250 33.668802 33.643769 33.623930 33.608620 33.598530 33.593020 33.592696 33.596940 33.606273 33.620102 33.638866 33.661996 33.689853 33.721891 33.758395 33.798845 33.843454 33.891726 33.943806 33.999224 34.058060 34.119870 34.184675 34.252054 34.321976 34.394044 34.468177 34.544005 34.621398 34.700016 34.779686 34.860097 34.941036 35.022222
35.400000 35.310584 35.221456 35.132942 35.045286 34.958854 34.873841 34.790648 34.709420 34.630590 34.554247 34.480856 34.410447 34.343514 34.280022 34.220495 34.164826 34.113571 34.066546 34.024336 33.986676 33.954179 33.926497 33.904270 33.887060 33.875535 33.869165 33.868643 33.873345 33.883990 33.899853 33.921681 33.948651 33.981531 34.019399 34.063048 34.111458 34.165441 34.223885 34.287620 34.355447 34.428210 34.504630 34.585566 34.669665 34.757799 34.848552 34.942808 35.039099 35.138318 35.238959 35.341923 35.445679 35.551134 35.656749 35.763432 35.869651 35.976316 36.081914 36.187354 36.291158 36.394229 36.495139 36.594780 36.691785 36.787030 36.879223 36.969216 37.055799 37.139796 37.220086 37.297456 37.370884 37.441108 37.507210 37.569872 37.628281 37.683058 37.733495 37.780144 37.822405 37.860749 37.894688 37.924606 37.950123 37.971534 37.988568 38.001422 38.009934 38.014204 38.014177 38.009853 38.001286 37.988375 37.971282 37.949807 37.924221 37.894228 37.860210 37.821777 37.779419 37.732664 37.682109 37.627202 37.568650 37.505830 37.439554 37.369137 37.295498 37.217894 37.137347 37.053069 36.966177 36.875847 36.783285 36.687638 36.590195 36.490079 36.388652 36.285023 36.180614 36.074523 35.968223 35.860804 35.753775 35.646225 35.539684 35.433241 35.328433 35.224351 35.122524 35.022050 34.924434 34.828780 34.736558 34.646880 34.561166 34.478540 34.400359 34.325761 34.256031 34.190324 34.129841 34.073757 34.023185 33.977319 33.937181 33.901986 33.872660 33.848440 33.830157 33.817071 33.809916 33.807979 33.811896 33.820979 33.835772 33.855615 33.880958 33.911170 33.946614 33.986685 34.031663 34.080972 34.134812 34.192635 34.254567 34.320089 34.389256 34.461578 34.537046 34.615199 34.695969 34.778922 34.863937 34.950612 35.038773 35.128051 35.218226 35.308963 35.400000
35.777778 35.678835 35.580238 35.482285 35.385364 35.289722 35.195791 35.103761 35.014100 34.926942 34.842791 34.761714 34.684250 34.610397 34.540728 34.475165 34.414313 34.358012 34.306903 34.260736 34.220184 34.184905 34.155604 34.131842 34.114353 34.102597 34.097338 34.097931 34.105169 34.118298 34.138139 34.163827 34.196211 34.234315 34.279011 34.329214 34.385821 34.447638 34.515581 34.588358 34.666901 34.749822 34.838070 34.930170 35.027086 35.127265 35.231683 35.338723 35.449373 35.561964 35.677493 35.794256 35.913256 36.032772 36.153812 36.274651 36.396300 36.517052 36.637914 36.757213 36.875953 36.992508 37.107873 37.220485 37.331327 37.438912 37.544200 37.645795 37.744627 37.839399 37.931005 38.018252 38.101989 38.181135 38.256485 38.327072 38.393627 38.455302 38.512753 38.565253 38.613375 38.656514 38.695149 38.728797 38.757840 38.781914 38.801298 38.815749 38.825435 38.830235 38.830206 38.825346 38.815598 38.801084 38.781634 38.757488 38.728369 38.694639 38.655915 38.612678 38.564449 38.511830 38.454248 38.392429 38.325715 38.254953 38.179409 38.100049 38.016076 37.928570 37.836679 37.741595 37.642419 37.540450 37.434752 37.326720 37.215392 37.102251 36.986312 36.869137 36.749726 36.629703 36.508060 36.386471 36.263922 36.142120 36.020051 35.899437 35.779268 35.661262 35.544416 35.430431 35.318308 35.209716 35.103665 35.001772 34.903061 34.809084 34.718878 34.633920 34.553262 34.478294 34.408086 34.343934 34.284927 34.232261 34.185044 34.144369 34.109367 34.081023 34.058495 34.042656 34.032694 34.029372 34.031905 34.040953 34.055759 34.076877 34.103582 34.136328 34.174421 34.218219 34.267059 34.321207 34.380032 34.443715 34.511657 34.583958 34.660049 34.739958 34.823148 34.909577 34.998740 35.090531 35.184481 35.280424 35.377926 35.476767 35.576551 35.677007 35.777778
36.155556 36.047229 35.939260 35.832058 35.725927 35.621322 35.518489 35.417926 35.319816 35.224700 35.132690 35.044366 34.959767 34.879512 34.803557 34.732559 34.666387 34.605735 34.550379 34.501047 34.457416 34.420251 34.389122 34.364830 34.346833 34.335964 34.331570 34.334515 34.344026 34.360998 34.384536 34.415566 34.453071 34.498002 34.549220 34.607702 34.672188 34.743679 34.820795 34.904561 34.993486 35.088611 35.188346 35.293744 35.403126 35.517558 35.635281 35.757374 35.882013 36.010287 36.140323 36.273219 36.407072 36.542985 36.679046 36.816361 36.953024 37.090145 37.225844 37.361228 37.494464 37.626652 37.756024 37.883666 38.007890 38.129763 38.247690 38.362714 38.473342 38.580583 38.683060 38.781735 38.875352 38.964821 39.049013 39.128770 39.203094 39.272752 39.336878 39.396151 39.449840 39.498528 39.541616 39.579582 39.611963 39.639122 39.660728 39.677029 39.687824 39.693239 39.693206 39.687726 39.676863 39.660493 39.638813 39.611576 39.579112 39.541056 39.497869 39.449074 39.395267 39.335863 39.271594 39.201778 39.127279 39.047328 38.962924 38.873219 38.779342 38.680382 38.577593 38.470008 38.359002 38.243566 38.125189 38.002824 37.878065 37.749841 37.619839 37.486968 37.352993 37.216813 37.080256 36.942214 36.804561 36.666187 36.528994 36.391872 36.256733 36.122471 35.990986 35.861178 35.734920 35.611119 35.491600 35.375282 35.263926 35.156463 35.054576 34.957210 34.865959 34.779783 34.700176 34.626118 34.558993 34.497801 34.443813 34.396053 34.355671 34.321720 34.295229 34.275277 34.262773 34.256828 34.258229 34.266120 34.281171 34.302558 34.330838 34.365221 34.406155 34.452886 34.505756 34.564047 34.628003 34.696940 34.771011 34.849569 34.932679 35.019729 35.110706 35.205035 35.302628 35.402945 35.505834 35.610793 35.717606 35.825810 35.935134 36.045158 36.155556
36.533333 36.415752 36.298595 36.182227 36.067126 35.953596 35.842163 35.733066 35.626878 35.523763 35.424341 35.328696 35.237491 35.150725 35.069103 34.992531 34.921755 34.856582 34.797799 34.745106 34.699328 34.660055 34.628149 34.603080 34.585749 34.575502 34.573275 34.578285 34.591503 34.612014 34.640821 34.676873 34.721205 34.772631 34.832211 34.898626 34.972963 35.053770 35.142156 35.236544 35.338063 35.445017 35.558553 35.676867 35.801120 35.929414 36.062921 36.199665 36.340829 36.484372 36.631487 36.780091 36.931383 37.083257 37.236916 37.390256 37.544480 37.697504 37.850533 38.001523 38.151674 38.299006 38.444709 38.586880 38.726698 38.862354 38.995003 39.122950 39.247315 39.366525 39.481659 39.591274 39.696397 39.795723 39.890212 39.978701 40.062075 40.139315 40.211217 40.276909 40.337085 40.391020 40.439298 40.481341 40.517612 40.547679 40.571877 40.589919 40.602009 40.608002 40.607967 40.601902 40.589739 40.571621 40.547343 40.517191 40.480829 40.438688 40.390302 40.336249 40.275944 40.210111 40.138053 40.060640 39.977075 39.888375 39.793654 39.694072 39.588666 39.478740 39.363263 39.243678 39.118902 38.990506 38.857365 38.721172 38.580772 38.437966 38.291575 38.143498 37.992541 37.840682 37.686718 37.532688 37.377384 37.222890 37.067995 36.914803 36.762109 36.612014 36.463319 36.318102 36.175171 36.036565 35.901098 35.770748 35.644340 35.523775 35.407891 35.298493 35.194437 35.097421 35.006318 34.922712 34.845495 34.776127 34.713524 34.659015 34.611545 34.572310 34.540283 34.516525 34.500042 34.491764 34.490728 34.497733 34.511853 34.533758 34.562561 34.598809 34.641650 34.691517 34.747595 34.810205 34.878572 34.952913 35.032492 35.117426 35.207021 35.301302 35.399615 35.501901 35.607545 35.716414 35.827931 35.941893 36.057767 36.175283 36.293954 36.413451 36.533333
36.911111 36.784446 36.658214 36.532910 36.408904 36.286744 36.166731 36.049467 35.935175 35.824510 35.717609 35.615176 35.517261 35.424613 35.337183 35.255768 35.180215 35.111364 35.048949 34.993855 34.945697 34.905401 34.872457 34.847831 34.830881 34.822612 34.822245 34.830822 34.847420 34.873119 34.906848 34.949721 35.000518 35.060384 35.127951 35.204392 35.288192 35.380549 35.479806 35.587182 35.700887 35.822157 35.949078 36.082901 36.221601 36.366440 36.515298 36.669449 36.826693 36.988313 37.152050 37.319195 37.487455 37.658125 37.828899 38.001076 38.172360 38.344054 38.513897 38.683187 38.849723 39.014798 39.176288 39.335474 39.490331 39.642122 39.788935 39.932005 40.069551 40.202767 40.330012 40.452431 40.568530 40.679392 40.783676 40.882388 40.974346 41.060466 41.139724 41.212934 41.279231 41.339316 41.392482 41.439303 41.479232 41.512707 41.539339 41.559423 41.572727 41.579399 41.579360 41.572611 41.559228 41.539061 41.512343 41.478776 41.438748 41.391821 41.338539 41.278327 41.211890 41.138527 41.059099 40.972792 40.880628 40.781687 40.677152 40.566012 40.449607 40.326851 40.199236 40.065613 39.927622 39.784064 39.636719 39.484347 39.328858 39.168985 39.006750 38.840868 38.673459 38.503228 38.332371 38.159588 37.987134 37.813705 37.641594 37.469496 37.299717 37.130957 36.965507 36.802075 36.642917 36.486748 36.335768 36.188700 36.047668 35.911406 35.781941 35.658024 35.541571 35.431349 35.329150 35.233761 35.146842 35.067203 34.996363 34.933158 34.878964 34.832644 34.795430 34.766216 34.746086 34.733970 34.730809 34.735568 34.749047 34.770251 34.799842 34.836866 34.881854 34.933894 34.993391 35.059476 35.132438 35.211448 35.296685 35.387364 35.483562 35.584535 35.690267 35.800057 35.913800 36.030843 36.150997 36.273656 36.398558 36.525145 36.653085 36.781872 36.911111
37.288889 37.153292 37.018202 36.884058 36.751430 36.620684 36.492449 36.367012 36.245059 36.126789 36.012943 35.903626 35.799632 35.700965 35.608468 35.522036 35.442560 35.369820 35.304754 35.247016 35.197591 35.155998 35.123270 35.098785 35.083618 35.077001 35.080050 35.091843 35.113537 35.144052 35.184582 35.233884 35.293188 35.361089 35.438845 35.524893 35.620515 35.723991 35.836628 35.956551 36.085090 36.220226 36.363305 36.512180 36.668206 36.829125 36.996303 37.167385 37.343744 37.522952 37.706389 37.891575 38.079896 38.268846 38.459815 38.650296 38.841683 39.031496 39.221127 39.408150 39.593953 39.776185 39.956229 40.131831 40.304357 40.471674 40.635124 40.792707 40.945733 41.092349 41.233820 41.368450 41.497445 41.619274 41.735069 41.843469 41.945518 42.040028 42.127937 42.208231 42.281731 42.347594 42.406513 42.457815 42.502050 42.538717 42.568215 42.590209 42.604943 42.612249 42.612207 42.604818 42.589999 42.567916 42.538326 42.501560 42.457219 42.405802 42.346758 42.280758 42.207108 42.126649 42.038557 41.943847 41.841575 41.732929 41.616863 41.494735 41.365411 41.230418 41.088548 40.941495 40.787989 40.629881 40.465857 40.297916 40.124708 39.948367 39.767521 39.584419 39.397676 39.209640 39.018917 38.827931 38.635285 38.443455 38.251045 38.060559 37.870601 37.683676 37.498395 37.317236 37.138815 36.965561 36.796097 36.632779 36.474239 36.322739 36.176921 36.038935 35.907438 35.784449 35.668646 35.561905 35.462926 35.373435 35.292156 35.220662 35.157702 35.104690 35.060409 35.026113 35.000618 34.985020 34.978174 34.981020 34.992453 35.013262 35.042385 35.080465 35.126485 35.180948 35.242883 35.312662 35.389359 35.473224 35.563376 35.659951 35.762114 35.869893 35.982503 36.099873 36.221264 36.346513 36.474935 36.606280 36.739915 36.875513 37.012493 37.150460 37.288889
37.666667 37.522336 37.378520 37.235804 37.094627 36.955640 36.819200 36.686022 36.556371 36.431023 36.310147 36.194576 36.084374 35.980428 35.882690 35.792102 35.708492 35.632854 35.564887 35.505636 35.454659 35.413051 35.380221 35.357315 35.343584 35.340220 35.346311 35.363093 35.389485 35.426763 35.473675 35.531531 35.598906 35.677141 35.764636 35.862762 35.969743 36.086978 36.212520 36.347788 36.490677 36.642620 36.801366 36.968359 37.141214 37.321388 37.506378 37.697649 37.892606 38.092719 38.295325 38.501899 38.709735 38.920314 39.130914 39.343019 39.553926 39.765118 39.973935 40.181862 40.386309 40.588757 40.786713 40.981648 41.171188 41.356786 41.536209 41.710880 41.878722 42.041118 42.196158 42.345171 42.486424 42.621176 42.747876 42.867697 42.979274 43.083677 43.179729 43.268380 43.348639 43.421325 43.485628 43.542222 43.590480 43.630917 43.663088 43.687340 43.703406 43.711462 43.711417 43.703273 43.687115 43.662769 43.630499 43.589956 43.541584 43.484867 43.420430 43.347599 43.267179 43.178350 43.082104 42.977485 42.865670 42.745586 42.618595 42.483523 42.341917 42.192516 42.037049 41.874184 41.705828 41.530595 41.350557 41.164289 40.974020 40.778292 40.579476 40.376097 40.170643 39.961630 39.751644 39.539194 39.326939 39.113389 38.901245 38.689020 38.479430 38.270993 38.066411 37.864207 37.667042 37.473443 37.286004 37.103261 36.927714 36.757907 36.596228 36.441231 36.295173 36.156622 36.027688 35.906957 35.796380 35.694566 35.603300 35.521216 35.449927 35.388100 35.337172 35.295846 35.265386 35.244532 35.234380 35.233708 35.243447 35.262422 35.291400 35.329253 35.376597 35.432349 35.496980 35.569458 35.650115 35.737969 35.833223 35.934946 36.043222 36.157172 36.276767 36.401180 36.530281 36.663295 36.799998 36.939672 37.082003 37.226330 37.372262 37.519196 37.666667