# vtk DataFile Version 3.0
Steady-state temperature (Jacobi)
ASCII
DATASET STRUCTURED_POINTS
DIMENSIONS 181 181 1
ORIGIN 0.0 0.0 0.0
SPACING 0.05 0.05 1.0
POINT_DATA 32761
SCALARS Temperature float 1
LOOKUP_TABLE default
32.000000 32.000000 32.000000 32.000000 32.000000 32.000000 32.000000 32.000000
32.000000 32.000000 32.000000 32.000000 32.000000 32.000000 32.000000 32.000000
32.000000 32.000000 32.000000 32.000000 32.000000 32.000000 32.000000 32.000000
32.000000 32.000000 32.000000 32.000000 32.000000 32.000000 32.000000 32.000000
32.000000 32.000000 32.000000 32.000000 32.000000 32.000000 32.000000 32.000000
32.000000 32.000000 32.000000 32.000000 32.000000 32.000000 32.000000 32.000000
32.000000 32.000000 32.000000 32.000000 32.000000 32.000000 32.000000 32.000000
32.000000 32.000000 32.000000 32.000000 32.000000 32.000000 32.000000 32.000000
32.000000 32.000000 32.000000 32.000000 32.000000 32.000000 32.000000 32.000000
32.000000 32.000000 32.000000 32.000000 32.000000 32.000000 32.000000 32.000000
32.000000 32.000000 32.000000 32.000000 32.000000 32.000000 32.000000 32.000000
32.000000 32.000000 32.000000 32.000000 32.000000 32.000000 32.000000 32.000000
32.000000 32.000000 32.000000 32.000000 32.000000 32.000000 32.000000 32.000000
32.000000 32.000000 32.000000 32.000000 32.000000 32.000000 32.000000 32.000000
32.000000 32.000000 32.000000 32.000000 32.000000 32.000000 32.000000 32.000000
32.000000 32.000000 32.000000 32.000000 32.000000 32.000000 32.000000 32.000000
32.000000 32.000000 32.000000 32.000000 32.000000 32.000000 32.000000 32.000000
32.000000 32.000000 32.000000 32.000000 32.000000 32.000000 32.000000 32.000000
32.000000 32.000000 32.000000 32.000000 32.000000 32.000000 32.000000 32.000000
32.000000 32.000000 32.000000 32.000000 32.000000 32.000000 32.000000 32.000000
32.000000 32.000000 32.000000 32.000000 32.000000 32.000000 32.000000 32.000000
32.000000 32.000000 32.000000 32.000000 32.000000 32.000000 32.000000 32.000000
32.000000 32.000000 32.000000 32.000000 32.000000
32.377778 32.357711 32.337733 32.317931 32.298391 32.279195 32.260420 32.242137
32.224414 32.207309 32.190873 32.175151 32.160177 32.145980 32.132579 32.119985
32.108203 32.097229 32.087053 32.077660 32.069027 32.061129 32.053935 32.047414
32.041527 32.036239 32.031510 32.027301 32.023572 32.020285 32.017401 32.014885
32.012700 32.010816 32.009197 32.007819 32.006651 32.005673 32.004856 32.004187
32.003641 32.003208 32.002866 32.002611 32.002422 32.002299 32.002223 32.002197
32.002204 32.002248 32.002314 32.002408 32.002515 32.002645 32.002780 32.002932
32.003085 32.003251 32.003414 32.003585 32.003751 32.003922 32.004085 32.004251
32.004408 32.004565 32.004711 32.004857 32.004991 32.005123 32.005243 32.005360
32.005465 32.005567 32.005657 32.005744 32.005820 32.005892 32.005954 32.006012
32.006061 32.006107 32.006145 32.006178 32.006206 32.006229 32.006247 32.006261
32.006269 32.006274 32.006274 32.006269 32.006261 32.006247 32.006229 32.006206
32.006178 32.006145 32.006107 32.006061 32.006012 32.005954 32.005892 32.005820
32.005744 32.005657 32.005567 32.005465 32.005360 32.005243 32.005123 32.004990
32.004857 32.004710 32.004564 32.004406 32.004249 32.004082 32.003918 32.003745
32.003577 32.003404 32.003238 32.003069 32.002911 32.002753 32.002610 32.002471
32.002353 32.002244 32.002161 32.002096 32.002063 32.002059 32.002097 32.002175
32.002311 32.002503 32.002770 32.003115 32.003559 32.004109 32.004788 32.005608
32.006595 32.007767 32.009152 32.010774 32.012665 32.014853 32.017373 32.020260
32.023551 32.027282 32.031494 32.036225 32.041516 32.047404 32.053927 32.061122
32.069021 32.077655 32.087049 32.097226 32.108201 32.119983 32.132577 32.145979
32.160176 32.175150 32.190872 32.207308 32.224414 32.242137 32.260419 32.279195
32.298391 32.317931 32.337733 32.357711 32.377778
32.755556 32.715422 32.675466 32.635862 32.596783 32.558390 32.520839 32.484275
32.448829 32.414618 32.381747 32.350302 32.320355 32.291961 32.265159 32.239972
32.216407 32.194459 32.174108 32.155321 32.138056 32.122260 32.107874 32.094831
32.083059 32.072483 32.063027 32.054609 32.047153 32.040580 32.034816 32.029784
32.025420 32.021650 32.018420 32.015664 32.013336 32.011379 32.009756 32.008417
32.007337 32.006470 32.005801 32.005290 32.004929 32.004682 32.004549 32.004495
32.004529 32.004616 32.004770 32.004958 32.005196 32.005454 32.005750 32.006052
32.006384 32.006714 32.007065 32.007407 32.007763 32.008104 32.008455 32.008786
32.009122 32.009435 32.009749 32.010039 32.010327 32.010589 32.010847 32.011080
32.011306 32.011508 32.011702 32.011873 32.012037 32.012179 32.012313 32.012427
32.012534 32.012624 32.012705 32.012772 32.012831 32.012877 32.012916 32.012943
32.012961 32.012970 32.012970 32.012961 32.012943 32.012916 32.012877 32.012831
32.012772 32.012705 32.012624 32.012534 32.012427 32.012313 32.012179 32.012037
32.011873 32.011702 32.011507 32.011306 32.011079 32.010847 32.010588 32.010326
32.010038 32.009747 32.009432 32.009118 32.008781 32.008448 32.008095 32.007751
32.007391 32.007045 32.006688 32.006351 32.006010 32.005695 32.005384 32.005109
32.004847 32.004631 32.004443 32.004313 32.004228 32.004219 32.004277 32.004435
32.004689 32.005074 32.005593 32.006285 32.007160 32.008261 32.009608 32.011250
32.013215 32.015559 32.018323 32.021567 32.025343 32.029719 32.034757 32.040530
32.047109 32.054571 32.062993 32.072456 32.083035 32.094811 32.107857 32.122246
32.138043 32.155311 32.174100 32.194453 32.216402 32.239967 32.265155 32.291958
32.320352 32.350300 32.381745 32.414617 32.448828 32.484274 32.520839 32.558390
32.596782 32.635862 32.675466 32.715422 32.755556
33.133333 33.073133 33.013199 32.953794 32.895174 32.837585 32.781259 32.726413
32.673243 32.621928 32.572621 32.525453 32.480533 32.437942 32.397740 32.359959
32.324613 32.291692 32.261165 32.232986 32.207089 32.183397 32.161819 32.142257
32.124600 32.108740 32.094556 32.081935 32.070753 32.060900 32.052256 32.044717
32.038173 32.032531 32.027688 32.023569 32.020081 32.017163 32.014733 32.012747
32.011132 32.009859 32.008861 32.008125 32.007590 32.007255 32.007063 32.007022
32.007081 32.007256 32.007496 32.007824 32.008191 32.008627 32.009080 32.009586
32.010094 32.010640 32.011177 32.011741 32.012285 32.012847 32.013382 32.013927
32.014439 32.014955 32.015433 32.015910 32.016347 32.016779 32.017171 32.017554
32.017897 32.018230 32.018524 32.018807 32.019054 32.019288 32.019491 32.019680
32.019841 32.019989 32.020112 32.020223 32.020312 32.020388 32.020446 32.020490
32.020518 32.020533 32.020533 32.020518 32.020490 32.020446 32.020388 32.020312
32.020223 32.020112 32.019989 32.019841 32.019680 32.019491 32.019288 32.019054
32.018806 32.018524 32.018229 32.017897 32.017553 32.017170 32.016778 32.016346
32.015908 32.015430 32.014950 32.014433 32.013919 32.013371 32.012834 32.012267
32.011718 32.011147 32.010602 32.010044 32.009522 32.008999 32.008523 32.008060
32.007658 32.007287 32.006995 32.006757 32.006621 32.006568 32.006648 32.006849
32.007224 32.007770 32.008543 32.009554 32.010862 32.012491 32.014508 32.016951
32.019896 32.023397 32.027540 32.032394 32.038056 32.044611 32.052165 32.060818
32.070685 32.081873 32.094505 32.108695 32.124563 32.142224 32.161792 32.183374
32.207070 32.232970 32.261152 32.291681 32.324605 32.359952 32.397734 32.437938
32.480529 32.525450 32.572618 32.621926 32.673242 32.726412 32.781258 32.837584
32.895173 32.953793 33.013198 33.073133 33.133333
33.511111 33.430844 33.350932 33.271725 33.193566 33.116780 33.041680 32.968551
32.897659 32.829238 32.763495 32.700606 32.640713 32.583925 32.530323 32.479949
32.432823 32.388928 32.348228 32.310656 32.276130 32.244542 32.215775 32.189694
32.166158 32.145013 32.126109 32.109284 32.094386 32.081252 32.069741 32.059695
32.050987 32.043472 32.037038 32.031555 32.026933 32.023053 32.019849 32.017215
32.015103 32.013421 32.012141 32.011177 32.010522 32.010095 32.009904 32.009873
32.010023 32.010282 32.010679 32.011145 32.011717 32.012327 32.013018 32.013722
32.014487 32.015246 32.016050 32.016831 32.017645 32.018422 32.019220 32.019974
32.020737 32.021448 32.022162 32.022819 32.023471 32.024066 32.024650 32.025176
32.025688 32.026145 32.026584 32.026971 32.027340 32.027661 32.027964 32.028223
32.028464 32.028666 32.028850 32.029001 32.029134 32.029238 32.029324 32.029385
32.029427 32.029447 32.029447 32.029427 32.029385 32.029324 32.029238 32.029134
32.029001 32.028850 32.028666 32.028464 32.028223 32.027964 32.027661 32.027340
32.026971 32.026584 32.026144 32.025687 32.025175 32.024648 32.024064 32.023469
32.022816 32.022157 32.021443 32.020729 32.019963 32.019207 32.018405 32.017621
32.016801 32.016010 32.015194 32.014421 32.013636 32.012909 32.012188 32.011542
32.010923 32.010401 32.009935 32.009591 32.009339 32.009244 32.009286 32.009533
32.009976 32.010686 32.011667 32.012998 32.014700 32.016859 32.019513 32.022759
32.026658 32.031317 32.036817 32.043282 32.050813 32.059548 32.069606 32.081139
32.094284 32.109199 32.126034 32.144951 32.166103 32.189648 32.215735 32.244510
32.276102 32.310634 32.348209 32.388913 32.432810 32.479939 32.530314 32.583919
32.640707 32.700602 32.763492 32.829235 32.897656 32.968549 33.041678 33.116779
33.193565 33.271725 33.350931 33.430844 33.511111
33.888889 33.788555 33.688665 33.589657 33.491957 33.395976 33.302100 33.210690
33.122074 33.036549 32.954371 32.875760 32.800894 32.729911 32.662908 32.599943
32.541036 32.486171 32.435296 32.388336 32.345179 32.305700 32.269744 32.237150
32.207734 32.181314 32.157690 32.136672 32.118057 32.101659 32.087280 32.074748
32.063875 32.054513 32.046487 32.039673 32.033915 32.029116 32.025135 32.021902
32.019292 32.017260 32.015694 32.014573 32.013793 32.013355 32.013160 32.013228
32.013465 32.013904 32.014454 32.015161 32.015933 32.016827 32.017750 32.018766
32.019783 32.020870 32.021935 32.023049 32.024124 32.025231 32.026283 32.027354
32.028359 32.029370 32.030308 32.031242 32.032099 32.032943 32.033709 32.034457
32.035127 32.035776 32.036351 32.036901 32.037383 32.037840 32.038234 32.038603
32.038916 32.039204 32.039444 32.039659 32.039832 32.039980 32.040091 32.040178
32.040233 32.040261 32.040261 32.040233 32.040178 32.040091 32.039980 32.039832
32.039659 32.039444 32.039204 32.038916 32.038603 32.038234 32.037840 32.037383
32.036901 32.036350 32.035775 32.035127 32.034455 32.033707 32.032941 32.032096
32.031238 32.030303 32.029363 32.028349 32.027341 32.026266 32.025208 32.024094
32.023011 32.021885 32.020806 32.019700 32.018660 32.017614 32.016654 32.015714
32.014885 32.014107 32.013470 32.012925 32.012560 32.012336 32.012344 32.012558
32.013071 32.013876 32.015068 32.016661 32.018759 32.021397 32.024690 32.028699
32.033552 32.039335 32.046195 32.054244 32.063646 32.074538 32.087102 32.101499
32.117922 32.136552 32.157590 32.181225 32.207661 32.237086 32.269692 32.305654
32.345143 32.388304 32.435271 32.486149 32.541019 32.599929 32.662897 32.729901
32.800886 32.875754 32.954366 33.036545 33.122071 33.210687 33.302098 33.395975
33.491956 33.589656 33.688664 33.788554 33.888889
34.266667 34.146266 34.026398 33.907588 33.790349 33.675172 33.562521 33.452829
33.346491 33.243861 33.145248 33.050916 32.961078 32.875899 32.795497 32.719941
32.649255 32.583419 32.522375 32.466024 32.414244 32.366872 32.323735 32.284628
32.249342 32.217646 32.189315 32.164105 32.141791 32.122128 32.104904 32.089885
32.076880 32.065669 32.056091 32.047944 32.041101 32.035379 32.030682 32.026848
32.023812 32.021428 32.019662 32.018379 32.017573 32.017118 32.017032 32.017193
32.017640 32.018255 32.019092 32.020034 32.021150 32.022320 32.023625 32.024945
32.026368 32.027774 32.029254 32.030692 32.032181 32.033606 32.035063 32.036438
32.037828 32.039125 32.040421 32.041618 32.042801 32.043882 32.044940 32.045895
32.046822 32.047649 32.048444 32.049145 32.049812 32.050392 32.050938 32.051406
32.051840 32.052205 32.052537 32.052809 32.053048 32.053235 32.053390 32.053499
32.053575 32.053611 32.053611 32.053575 32.053499 32.053390 32.053235 32.053048
32.052809 32.052537 32.052205 32.051840 32.051406 32.050938 32.050392 32.049811
32.049145 32.048443 32.047649 32.046821 32.045894 32.044938 32.043879 32.042798
32.041613 32.040415 32.039116 32.037816 32.036423 32.035042 32.033579 32.032146
32.030646 32.029195 32.027696 32.026268 32.024817 32.023462 32.022112 32.020886
32.019702 32.018676 32.017734 32.016993 32.016391 32.016043 32.015905 32.016091
32.016577 32.017479 32.018797 32.020655 32.023076 32.026197 32.030068 32.034841
32.040599 32.047509 32.055687 32.065322 32.076562 32.089615 32.104659 32.121921
32.141604 32.163949 32.189177 32.217532 32.249241 32.284545 32.323663 32.366814
32.414193 32.465984 32.522339 32.583391 32.649232 32.719923 32.795482 32.875887
32.961067 33.050908 33.145242 33.243856 33.346487 33.452826 33.562519 33.675170
33.790348 33.907587 34.026397 34.146265 34.266667
34.644444 34.503977 34.364131 34.225520 34.088742 33.954369 33.822943 33.694969
33.570909 33.451174 33.336127 33.226074 33.121264 33.021891 32.928091 32.839946
32.757481 32.680678 32.609463 32.543729 32.483323 32.428068 32.377749 32.332140
32.290983 32.254026 32.220988 32.191605 32.165591 32.142691 32.122623 32.105152
32.090012 32.076999 32.065866 32.056446 32.048514 32.041941 32.036525 32.032176
32.028711 32.026077 32.024106 32.022782 32.021945 32.021610 32.021626 32.022034
32.022684 32.023642 32.024758 32.026116 32.027566 32.029204 32.030881 32.032703
32.034520 32.036446 32.038330 32.040292 32.042182 32.044122 32.045966 32.047837
32.049594 32.051356 32.052993 32.054618 32.056110 32.057577 32.058909 32.060206
32.061372 32.062495 32.063493 32.064445 32.065280 32.066069 32.066752 32.067388
32.067930 32.068427 32.068840 32.069210 32.069508 32.069763 32.069956 32.070105
32.070199 32.070248 32.070248 32.070199 32.070105 32.069956 32.069763 32.069508
32.069210 32.068840 32.068426 32.067930 32.067388 32.066752 32.066069 32.065280
32.064444 32.063492 32.062494 32.061370 32.060205 32.058907 32.057574 32.056106
32.054612 32.052986 32.051346 32.049580 32.047819 32.045943 32.044091 32.042141
32.040238 32.038260 32.036356 32.034404 32.032554 32.030690 32.028962 32.027258
32.025729 32.024272 32.023034 32.021929 32.021098 32.020473 32.020195 32.020216
32.020679 32.021560 32.023008 32.025028 32.027777 32.031292 32.035745 32.041210
32.047876 32.055854 32.065354 32.076528 32.089609 32.104785 32.122311 32.142410
32.165355 32.191394 32.220812 32.253871 32.290855 32.332027 32.377657 32.427988
32.483259 32.543673 32.609418 32.680640 32.757451 32.839920 32.928071 33.021875
33.121251 33.226063 33.336119 33.451168 33.570904 33.694965 33.822940 33.954366
34.088740 34.225519 34.364130 34.503977 34.644444
35.022222 34.861688 34.701865 34.543453 34.387135 34.233566 34.083366 33.937111
33.795328 33.658490 33.527009 33.401235 33.281455 33.167888 33.060692 32.959957
32.865718 32.777947 32.696567 32.621449 32.552427 32.489287 32.431798 32.379686
32.332676 32.290457 32.252734 32.219178 32.189495 32.163356 32.140483 32.120559
32.103336 32.088518 32.075898 32.065200 32.056262 32.048834 32.042800 32.037932
32.034158 32.031269 32.029236 32.027863 32.027159 32.026937 32.027240 32.027885
32.028944 32.030235 32.031854 32.033616 32.035638 32.037732 32.040029 32.042339
32.044805 32.047236 32.049780 32.052248 32.054793 32.057229 32.059709 32.062053
32.064413 32.066618 32.068815 32.070844 32.072847 32.074677 32.076464 32.078080
32.079643 32.081040 32.082379 32.083561 32.084682 32.085660 32.086576 32.087364
32.088091 32.088705 32.089261 32.089718 32.090118 32.090432 32.090691 32.090874
32.091001 32.091062 32.091062 32.091001 32.090874 32.090691 32.090432 32.090118
32.089718 32.089261 32.088705 32.088091 32.087364 32.086576 32.085660 32.084682
32.083561 32.082378 32.081039 32.079642 32.078078 32.076462 32.074673 32.072842
32.070838 32.068806 32.066606 32.064397 32.062032 32.059682 32.057193 32.054747
32.052187 32.049701 32.047133 32.044672 32.042169 32.039811 32.037454 32.035287
32.033173 32.031298 32.029541 32.028081 32.026816 32.025922 32.025319 32.025183
32.025460 32.026326 32.027762 32.029949 32.032904 32.036820 32.041754 32.047915
32.055405 32.064455 32.075210 32.087926 32.102795 32.120097 32.140064 32.163003
32.189178 32.218913 32.252498 32.290262 32.332504 32.379545 32.431674 32.489187
32.552340 32.621379 32.696507 32.777899 32.865678 32.959925 33.060665 33.167867
33.281437 33.401221 33.526998 33.658481 33.795321 33.937105 34.083361 34.233563
34.387132 34.543451 34.701864 34.861688 35.022222
35.400000 35.219400 35.039598 34.861385 34.685528 34.512764 34.343789 34.179253
34.019749 33.865808 33.717893 33.576400 33.441650 33.313891 33.193299 33.079979
32.973965 32.875232 32.783688 32.699194 32.621555 32.550544 32.485883 32.427287
32.374421 32.326966 32.284556 32.246861 32.213507 32.184173 32.158493 32.136174
32.116865 32.100318 32.086204 32.074323 32.064375 32.056208 32.049550 32.044303
32.040213 32.037235 32.035131 32.033902 32.033322 32.033432 32.034012 32.035141
32.036597 32.038491 32.040599 32.043056 32.045635 32.048491 32.051391 32.054508
32.057604 32.060862 32.064045 32.067343 32.070519 32.073766 32.076854 32.079976
32.082910 32.085844 32.088571 32.091271 32.093753 32.096186 32.098399 32.100547
32.102479 32.104336 32.105988 32.107560 32.108941 32.110241 32.111368 32.112415
32.113309 32.114125 32.114807 32.115414 32.115904 32.116323 32.116639 32.116883
32.117038 32.117119 32.117119 32.117038 32.116883 32.116639 32.116323 32.115904
32.115414 32.114807 32.114125 32.113308 32.112415 32.111368 32.110241 32.108940
32.107559 32.105987 32.104335 32.102477 32.100545 32.098396 32.096182 32.093748
32.091264 32.088562 32.085831 32.082892 32.079953 32.076824 32.073726 32.070466
32.067274 32.063956 32.060746 32.057454 32.054316 32.051146 32.048179 32.045239
32.042558 32.039973 32.037710 32.035625 32.033938 32.032529 32.031613 32.031098
32.031198 32.031857 32.033289 32.035478 32.038646 32.042822 32.048242 32.054985
32.063304 32.073331 32.085346 32.099529 32.116189 32.135558 32.157970 32.183702
32.213111 32.246508 32.284262 32.326705 32.374207 32.427098 32.485729 32.550410
32.621447 32.699101 32.783613 32.875169 32.973915 33.079936 33.193265 33.313863
33.441628 33.576382 33.717879 33.865796 34.019740 34.179246 34.343784 34.512760
34.685525 34.861383 35.039597 35.219399 35.400000
35.777778 35.577111 35.377332 35.179318 34.983922 34.791963 34.604214 34.421398
34.244173 34.073128 33.908781 33.751569 33.601851 33.459901 33.325917 33.200011
33.082229 32.972534 32.870834 32.776964 32.690721 32.611837 32.540025 32.474942
32.416248 32.363553 32.316494 32.274657 32.237681 32.205149 32.176726 32.152007
32.130696 32.112413 32.096913 32.083842 32.073014 32.064101 32.056979 32.051343
32.047129 32.044052 32.042101 32.041006 32.040807 32.041237 32.042385 32.043984
32.046159 32.048640 32.051587 32.054722 32.058231 32.061829 32.065723 32.069622
32.073750 32.077809 32.082035 32.086132 32.090338 32.094364 32.098448 32.102311
32.106189 32.109814 32.113416 32.116747 32.120023 32.123021 32.125941 32.128583
32.131132 32.133413 32.135593 32.137520 32.139342 32.140934 32.142421 32.143701
32.144880 32.145876 32.146776 32.147516 32.148163 32.148672 32.149090 32.149387
32.149592 32.149689 32.149689 32.149592 32.149387 32.149090 32.148672 32.148163
32.147516 32.146776 32.145876 32.144880 32.143700 32.142421 32.140933 32.139342
32.137519 32.135592 32.133412 32.131131 32.128581 32.125938 32.123017 32.120018
32.116739 32.113405 32.109800 32.106169 32.102286 32.098415 32.094319 32.090280
32.086055 32.081936 32.077680 32.073583 32.069409 32.065451 32.061482 32.057792
32.054168 32.050892 32.047772 32.045080 32.042647 32.040738 32.039216 32.038337
32.038002 32.038464 32.039667 32.041868 32.045058 32.049503 32.055250 32.062581
32.071599 32.082610 32.095777 32.111434 32.129802 32.151243 32.176034 32.204564
32.237157 32.274218 32.316105 32.363230 32.415964 32.474708 32.539821 32.611671
32.690578 32.776849 32.870735 32.972455 33.082162 33.199959 33.325872 33.459867
33.601822 33.751547 33.908763 34.073114 34.244161 34.421389 34.604207 34.791957
34.983918 35.179316 35.377331 35.577110 35.777778
36.155556 35.934823 35.715067 35.497252 35.282317 35.071163 34.864641 34.663545
34.468598 34.280452 34.099674 33.926745 33.762059 33.605922 33.458545 33.320061
33.190509 33.069861 32.958004 32.854772 32.759924 32.673187 32.594221 32.522681
32.458156 32.400261 32.348549 32.302622 32.262019 32.226360 32.195188 32.168162
32.144842 32.124941 32.108046 32.093932 32.082214 32.072735 32.065138 32.059332
32.054981 32.052062 32.050252 32.049588 32.049755 32.050847 32.052545 32.054994
32.057869 32.061356 32.065120 32.069381 32.073796 32.078610 32.083470 32.088644
32.093770 32.099132 32.104364 32.109759 32.114955 32.120248 32.125284 32.130358
32.135131 32.139889 32.144316 32.148685 32.152707 32.156637 32.160215 32.163680
32.166798 32.169789 32.172450 32.174977 32.177198 32.179285 32.181095 32.182773
32.184205 32.185512 32.186603 32.187574 32.188358 32.189026 32.189531 32.189921
32.190168 32.190296 32.190296 32.190168 32.189921 32.189531 32.189026 32.188358
32.187574 32.186603 32.185512 32.184205 32.182772 32.181094 32.179284 32.177198
32.174976 32.172449 32.169787 32.166796 32.163677 32.160212 32.156633 32.152700
32.148677 32.144304 32.139873 32.135109 32.130329 32.125247 32.120199 32.114891
32.109675 32.104254 32.098990 32.093587 32.088410 32.083170 32.078229 32.073313
32.068773 32.064356 32.060401 32.056682 32.053524 32.050733 32.048623 32.047038
32.046284 32.046250 32.047239 32.049194 32.052418 32.056915 32.062999 32.070738
32.080464 32.092312 32.106641 32.123653 32.143736 32.167157 32.194334 32.225591
32.261372 32.302045 32.348068 32.399836 32.457805 32.522373 32.593970 32.672969
32.759747 32.854620 32.957882 33.069757 33.190426 33.319991 33.458490 33.605876
33.762024 33.926716 34.099651 34.280434 34.468584 34.663533 34.864632 35.071156
35.282312 35.497249 35.715065 35.934822 36.155556
36.533333 36.292535 36.052802 35.815187 35.580713 35.350364 35.125070 34.905693
34.693028 34.487781 34.290572 34.101927 33.922278 33.751952 33.591190 33.440125
33.298814 33.167212 33.045213 32.932618 32.829185 32.734593 32.648504 32.570502
32.500188 32.437089 32.380780 32.330758 32.286604 32.247811 32.213990 32.184647
32.159447 32.137917 32.119790 32.104621 32.092216 32.082157 32.074330 32.068339
32.064144 32.061366 32.060039 32.059789 32.060717 32.062448 32.065143 32.068418
32.072486 32.076951 32.082068 32.087426 32.093317 32.099314 32.105736 32.112146
32.118883 32.125502 32.132357 32.139001 32.145796 32.152301 32.158879 32.165105
32.171333 32.177163 32.182937 32.188283 32.193526 32.198326 32.202990 32.207214
32.211278 32.214918 32.218386 32.221456 32.224351 32.226882 32.229240 32.231272
32.233139 32.234718 32.236141 32.237312 32.238335 32.239139 32.239798 32.240268
32.240591 32.240745 32.240745 32.240591 32.240268 32.239798 32.239139 32.238335
32.237312 32.236141 32.234718 32.233139 32.231272 32.229240 32.226881 32.224351
32.221456 32.218385 32.214917 32.211276 32.207211 32.202986 32.198321 32.193519
32.188273 32.182925 32.177146 32.171310 32.165074 32.158838 32.152248 32.145725
32.138909 32.132237 32.125347 32.118684 32.111890 32.105409 32.098897 32.092790
32.086762 32.081234 32.075909 32.071191 32.066814 32.063166 32.060022 32.057753
32.056184 32.055674 32.056105 32.057830 32.060796 32.065359 32.071536 32.079696
32.089929 32.102626 32.117954 32.136332 32.158001 32.183411 32.212873 32.246865
32.285758 32.330048 32.380150 32.436566 32.499728 32.570124 32.648175 32.734326
32.828954 32.932431 33.045054 33.167085 33.298706 33.440040 33.591118 33.751896
33.922231 34.101891 34.290543 34.487758 34.693009 34.905679 35.125058 35.350356
35.580707 35.815183 36.052799 36.292533 36.533333
36.911111 36.650247 36.390537 36.133122 35.879111 35.629568 35.385500 35.147846
34.917461 34.695115 34.481477 34.277120 34.082506 33.897999 33.723849 33.560215
33.407143 33.264602 33.132459 33.010521 32.898502 32.796086 32.702868 32.618449
32.542340 32.474097 32.413185 32.359149 32.311436 32.269616 32.233136 32.201616
32.174523 32.151543 32.132169 32.116167 32.103058 32.092694 32.084618 32.078771
32.074711 32.072465 32.071597 32.072213 32.073876 32.076762 32.080424 32.085102
32.090331 32.096406 32.102840 32.109973 32.117299 32.125195 32.133134 32.141521
32.149817 32.158447 32.166866 32.175510 32.183838 32.192290 32.200339 32.208420
32.216030 32.223592 32.230635 32.237566 32.243951 32.250173 32.255843 32.261317
32.266250 32.270966 32.275168 32.279145 32.282646 32.285924 32.288771 32.291403
32.293653 32.295698 32.297410 32.298928 32.300156 32.301199 32.301990 32.302598
32.302985 32.303185 32.303185 32.302985 32.302598 32.301990 32.301199 32.300156
32.298928 32.297410 32.295698 32.293653 32.291403 32.288771 32.285923 32.282645
32.279144 32.275166 32.270964 32.266248 32.261314 32.255839 32.250168 32.243943
32.237556 32.230621 32.223573 32.216005 32.208387 32.200295 32.192232 32.183762
32.175410 32.166737 32.158279 32.149601 32.141244 32.132779 32.124744 32.116729
32.109254 32.101936 32.095277 32.088928 32.083365 32.078282 32.074134 32.070665
32.068308 32.066868 32.066765 32.067871 32.070599 32.074900 32.081187 32.089495
32.100251 32.113575 32.129916 32.149482 32.172750 32.200008 32.231767 32.268385
32.310399 32.358226 32.412413 32.473417 32.541777 32.617957 32.702466 32.795737
32.898219 33.010278 33.132264 33.264436 33.407011 33.560103 33.723761 33.897926
34.082449 34.277072 34.481441 34.695085 34.917439 35.147828 35.385487 35.629557
35.879103 36.133117 36.390534 36.650245 36.911111
37.288889 37.007959 36.728274 36.451059 36.177510 35.908773 35.645935 35.390002
35.141900 34.902455 34.672391 34.452321 34.242749 34.044060 33.856533 33.680327
33.515509 33.362028 33.219762 33.088479 32.967905 32.857660 32.757360 32.666517
32.584676 32.511281 32.445851 32.387792 32.336634 32.291774 32.252786 32.219074
32.190281 32.165834 32.145456 32.128603 32.115091 32.104398 32.096441 32.090713
32.087227 32.085483 32.085589 32.087040 32.090028 32.094035 32.099330 32.105372
32.112499 32.120140 32.128690 32.137551 32.147165 32.156904 32.167249 32.177552
32.188319 32.198891 32.209790 32.220357 32.231123 32.241437 32.251831 32.261677
32.271497 32.280696 32.289780 32.298198 32.306429 32.313974 32.321282 32.327907
32.334263 32.339961 32.345374 32.350170 32.354680 32.358626 32.362293 32.365456
32.368353 32.370807 32.373011 32.374829 32.376411 32.377658 32.378677 32.379404
32.379902 32.380141 32.380141 32.379902 32.379404 32.378677 32.377658 32.376411
32.374829 32.373011 32.370807 32.368353 32.365456 32.362293 32.358626 32.354679
32.350170 32.345373 32.339959 32.334261 32.327904 32.321278 32.313968 32.306421
32.298187 32.289765 32.280676 32.271470 32.261641 32.251784 32.241375 32.231041
32.220250 32.209651 32.198710 32.188087 32.177254 32.166868 32.156419 32.146550
32.136776 32.127718 32.118925 32.110987 32.103501 32.097023 32.091204 32.086570
32.082834 32.080497 32.079345 32.079861 32.081913 32.085975 32.092007 32.100485
32.111462 32.125431 32.142543 32.163313 32.187988 32.217110 32.251014 32.290272
32.335292 32.386664 32.444853 32.510451 32.583948 32.665917 32.756838 32.857235
32.967538 33.088183 33.219509 33.361826 33.515338 33.680192 33.856419 34.043970
34.242675 34.452263 34.672344 34.902419 35.141871 35.389980 35.645917 35.908760
36.177500 36.451052 36.728269 37.007957 37.288889
37.666667 37.365672 37.066011 36.768997 36.475911 36.187982 35.906372 35.632163
35.366345 35.109804 34.863314 34.627537 34.403006 34.190144 33.989239 33.800476
33.623910 33.459510 33.307118 33.166522 33.037388 32.919362 32.811972 32.714770
32.627189 32.548731 32.478772 32.416809 32.362193 32.314453 32.272938 32.237243
32.206729 32.181078 32.159674 32.142298 32.128357 32.117741 32.109872 32.104750
32.101804 32.101141 32.102182 32.105137 32.109409 32.115299 32.122182 32.130440
32.139412 32.149553 32.160163 32.171755 32.183591 32.196232 32.208911 32.222224
32.235380 32.249003 32.262293 32.275886 32.288989 32.302243 32.314873 32.327515
32.339428 32.351233 32.362237 32.373033 32.382987 32.392661 32.401483 32.409974
32.417633 32.424934 32.431445 32.437590 32.443003 32.448057 32.452451 32.456502
32.459967 32.463110 32.465741 32.468070 32.469956 32.471553 32.472766 32.473697
32.474290 32.474596 32.474596 32.474290 32.473697 32.472766 32.471553 32.469955
32.468070 32.465741 32.463110 32.459967 32.456502 32.452451 32.448057 32.443003
32.437589 32.431444 32.424933 32.417631 32.409971 32.401478 32.392654 32.382979
32.373021 32.362221 32.351211 32.339400 32.327476 32.314822 32.302176 32.288901
32.275771 32.262143 32.248810 32.235131 32.221904 32.208502 32.195712 32.182932
32.170924 32.159121 32.148252 32.137793 32.128435 32.119710 32.112266 32.105704
32.100631 32.096726 32.094564 32.093912 32.095322 32.098659 32.104464 32.112707
32.123933 32.138219 32.156124 32.177835 32.203935 32.234714 32.270781 32.312519
32.360559 32.415358 32.477558 32.547662 32.626303 32.713997 32.811338 32.918814
33.036943 33.166141 33.306811 33.459249 33.623702 33.800302 33.989101 34.190029
34.402916 34.627462 34.863257 35.109757 35.366309 35.632135 35.906350 36.187965
36.475899 36.768988 37.066005 37.365670 37.666667
38.044444 37.723386 37.403749 37.086936 36.774314 36.467193 36.166814 35.874329
35.590797 35.317161 35.054250 34.802765 34.563286 34.336249 34.121980 33.920659
33.732366 33.557043 33.394558 33.244644 33.106997 32.981181 32.866768 32.763198
32.669968 32.586435 32.512073 32.446191 32.388283 32.337644 32.293823 32.256119
32.224168 32.197286 32.175212 32.157282 32.143354 32.132779 32.125536 32.120981
32.119217 32.119589 32.122319 32.126728 32.133149 32.140867 32.150312 32.160725
32.172622 32.185196 32.199035 32.213282 32.228586 32.244045 32.260357 32.276584
32.293461 32.310028 32.327044 32.343546 32.360301 32.376365 32.392502 32.407800
32.423012 32.437274 32.451316 32.464339 32.477036 32.488684 32.499933 32.510139
32.519901 32.528660 32.536956 32.544313 32.551210 32.557249 32.562846 32.567677