# vtk DataFile Version 3.0
Steady-state temperature (Jacobi)
ASCII
DATASET STRUCTURED_POINTS
DIMENSIONS 181 181 1
ORIGIN 0.0 0.0 0.0
SPACING 0.05 0.05 1.0
POINT_DATA 32761
SCALARS Temperature float 1
LOOKUP_TABLE default
32.000000 32.000000 32.000000 32.000000 32.000000 32.000000 32.000000 32.000000
32.000000 32.000000 32.000000 32.000000 32.000000 32.000000 32.000000 32.000000
32.000000 32.000000 32.000000 32.000000 32.000000 32.000000 32.000000 32.000000
32.000000 32.000000 32.000000 32.000000 32.000000 32.000000 32.000000 32.000000
32.000000 32.000000 32.000000 32.000000 32.000000 32.000000 32.000000 32.000000
32.000000 32.000000 32.000000 32.000000 32.000000 32.000000 32.000000 32.000000
32.000000 32.000000 32.000000 32.000000 32.000000 32.000000 32.000000 32.000000
32.000000 32.000000 32.000000 32.000000 32.000000 32.000000 32.000000 32.000000
32.000000 32.000000 32.000000 32.000000 32.000000 32.000000 32.000000 32.000000
32.000000 32.000000 32.000000 32.000000 32.000000 32.000000 32.000000 32.000000
32.000000 32.000000 32.000000 32.000000 32.000000 32.000000 32.000000 32.000000
32.000000 32.000000 32.000000 32.000000 32.000000 32.000000 32.000000 32.000000
32.000000 32.000000 32.000000 32.000000 32.000000 32.000000 32.000000 32.000000
32.000000 32.000000 32.000000 32.000000 32.000000 32.000000 32.000000 32.000000
32.000000 32.000000 32.000000 32.000000 32.000000 32.000000 32.000000 32.000000
32.000000 32.000000 32.000000 32.000000 32.000000 32.000000 32.000000 32.000000
32.000000 32.000000 32.000000 32.000000 32.000000 32.000000 32.000000 32.000000
32.000000 32.000000 32.000000 32.000000 32.000000 32.000000 32.000000 32.000000
32.000000 32.000000 32.000000 32.000000 32.000000 32.000000 32.000000 32.000000
32.000000 32.000000 32.000000 32.000000 32.000000 32.000000 32.000000 32.000000
32.000000 32.000000 32.000000 32.000000 32.000000 32.000000 32.000000 32.000000
32.000000 32.000000 32.000000 32.000000 32.000000 32.000000 32.000000 32.000000
32.000000 32.000000 32.000000 32.000000 32.000000
32.377778 32.404317 32.430864 32.457430 32.484022 32.510651 32.537323 32.564049
32.590834 32.617689 32.644617 32.671630 32.698730 32.725926 32.753220 32.780620
32.808126 32.835747 32.863479 32.891330 32.919294 32.947379 32.975575 33.003890
33.032312 33.060846 33.089478 33.118211 33.147030 33.175935 33.204909 33.233951
33.263039 33.292173 33.321327 33.350497 33.379659 33.408806 33.437910 33.466963
33.495935 33.524817 33.553577 33.582203 33.610663 33.638945 33.667013 33.694856
33.722436 33.749741 33.776735 33.803403 33.829710 33.855641 33.881160 33.906254
33.930888 33.955047 33.978700 34.001832 34.024411 34.046426 34.067847 34.088662
34.108845 34.128384 34.147255 34.165449 34.182943 34.199730 34.215789 34.231115
34.245690 34.259509 34.272556 34.284829 34.296313 34.307006 34.316897 34.325985
34.334261 34.341722 34.348363 34.354182 34.359175 34.363340 34.366674 34.369178
34.370849 34.371686 34.371690 34.370860 34.369198 34.366702 34.363377 34.359221
34.354239 34.348431 34.341803 34.334356 34.326096 34.317026 34.307154 34.296482
34.285021 34.272775 34.259756 34.245969 34.231429 34.216140 34.200122 34.183380
34.165935 34.147794 34.128980 34.109503 34.089388 34.068644 34.047300 34.025368
34.002877 33.979840 33.956289 33.932236 33.907717 33.882745 33.857355 33.831561
33.805400 33.778885 33.752053 33.724919 33.697519 33.669866 33.641998 33.613926
33.585686 33.557290 33.528773 33.500144 33.471437 33.442661 33.413846 33.385000
33.356153 33.327308 33.298495 33.269715 33.240994 33.212334 33.183756 33.155260
33.126865 33.098570 33.070392 33.042327 33.014390 32.986574 32.958892 32.931336
32.903917 32.876627 32.849471 32.822441 32.795542 32.768763 32.742106 32.715562
32.689129 32.662797 32.636564 32.610419 32.584357 32.558368 32.532446 32.506579
32.480761 32.454981 32.429231 32.403499 32.377778
32.755556 32.808639 32.861741 32.914879 32.968071 33.021334 33.074687 33.128143
33.181723 33.235437 33.289306 33.343335 33.397547 33.451943 33.506545 33.561350
33.616379 33.671625 33.727106 33.782812 33.838760 33.894935 33.951349 34.007984
34.064851 34.121925 34.179214 34.236688 34.294353 34.352172 34.410149 34.468242
34.526449 34.584726 34.643066 34.701420 34.759777 34.818084 34.876327 34.934446
34.992427 35.050205 35.107762 35.165030 35.221989 35.278568 35.334743 35.390444
35.445644 35.500270 35.554296 35.607648 35.660299 35.712176 35.763251 35.813454
35.862756 35.911090 35.958427 36.004704 36.049894 36.093936 36.136806 36.178447
36.218838 36.257925 36.295690 36.332086 36.367095 36.400675 36.432812 36.463469
36.492635 36.520276 36.546385 36.570932 36.593911 36.615299 36.635092 36.653268
36.669826 36.684749 36.698037 36.709675 36.719664 36.727995 36.734667 36.739674
36.743017 36.744692 36.744700 36.743040 36.739713 36.734723 36.728069 36.719757
36.709789 36.698173 36.684912 36.670017 36.653490 36.635348 36.615594 36.594249
36.571317 36.546822 36.520771 36.493193 36.464096 36.433515 36.401460 36.367970
36.333058 36.296769 36.259118 36.220155 36.179898 36.138401 36.095685 36.051808
36.006795 35.960708 35.913572 35.865454 35.816381 35.766422 35.715605 35.664002
35.611641 35.558596 35.504894 35.450610 35.395771 35.340450 35.284674 35.228514
35.171996 35.115190 35.058117 35.000845 34.943394 34.885828 34.828163 34.770460
34.712730 34.655031 34.597371 34.539802 34.482329 34.424999 34.367813 34.310813
34.253997 34.197401 34.141019 34.084883 34.028984 33.973347 33.917961 33.862846
33.807988 33.753403 33.699073 33.645010 33.591195 33.537633 33.484305 33.431213
33.378334 33.325668 33.273190 33.220896 33.168763 33.116781 33.064927 33.013190
32.961546 32.909981 32.858473 32.807005 32.755556
33.133333 33.212975 33.292643 33.372367 33.452170 33.532083 33.612127 33.692332
33.772716 33.853310 33.934127 34.015198 34.096529 34.178153 34.260070 34.342311
34.424869 34.507774 34.591014 34.674613 34.758554 34.842859 34.927502 35.012502
35.097826 35.183489 35.269448 35.355715 35.442241 35.529031 35.616028 35.703231
35.790578 35.878061 35.965610 36.053212 36.140789 36.228325 36.315733 36.402992
36.490009 36.576758 36.663141 36.749127 36.834615 36.919569 37.003883 37.087519
37.170370 37.252395 37.333485 37.413597 37.492624 37.570521 37.647183 37.722566
37.796566 37.869141 37.940191 38.009676 38.077502 38.143630 38.207972 38.270493
38.331112 38.389797 38.446473 38.501114 38.553652 38.604064 38.652291 38.698313
38.742078 38.783571 38.822746 38.859593 38.894071 38.926175 38.955870 38.983152
39.007994 39.030393 39.050327 39.067795 39.082781 39.095284 39.105293 39.112808
39.117822 39.120336 39.120348 39.117857 39.112866 39.105377 39.095394 39.082920
39.067966 39.050532 39.030637 39.008280 38.983486 38.956256 38.926618 38.894579
38.860171 38.823402 38.784313 38.742915 38.699254 38.653345 38.605243 38.554965
38.502574 38.448092 38.391588 38.333088 38.272670 38.210364 38.146254 38.080374
38.012814 37.943612 37.872865 37.800613 37.726957 37.651940 37.575666 37.498179
37.419588 37.339936 37.259332 37.177821 37.095510 37.012443 36.928728 36.844404
36.759577 36.674284 36.588626 36.502637 36.416415 36.329986 36.243445 36.156814
36.070179 35.983557 35.897030 35.810607 35.724363 35.638303 35.552493 35.466933
35.381680 35.296730 35.212132 35.127876 35.044004 34.960501 34.877401 34.794685
34.712380 34.630462 34.548951 34.467820 34.387082 34.306707 34.226702 34.147033
34.067703 33.988676 33.909947 33.831482 33.753270 33.675276 33.597483 33.519858
33.442380 33.365015 33.287739 33.210521 33.133333
33.511111 33.617329 33.723584 33.829910 33.936348 34.042926 34.149687 34.256654
34.363872 34.471359 34.579158 34.687282 34.795772 34.904635 35.013911 35.123598
35.233735 35.344311 35.455361 35.566867 35.678860 35.791310 35.904246 36.017628
36.131479 36.245749 36.360455 36.475537 36.591005 36.706789 36.822893 36.939235
37.055812 37.172534 37.289387 37.406274 37.523173 37.639975 37.756655 37.873093
37.989256 38.105020 38.220342 38.335092 38.449224 38.562600 38.675168 38.786789
38.897407 39.006879 39.115148 39.222069 39.327584 39.431549 39.533906 39.634514
39.733316 39.830175 39.925037 40.017771 40.108324 40.196574 40.282473 40.365906
40.446831 40.525141 40.600798 40.673708 40.743837 40.811100 40.875470 40.936872
40.995283 41.050638 41.102921 41.152074 41.198087 41.240910 41.280537 41.316927
41.350075 41.379949 41.406548 41.429845 41.449840 41.466515 41.479870 41.489892
41.496582 41.499935 41.499950 41.496629 41.489970 41.479982 41.466663 41.450026
41.430073 41.406822 41.380275 41.350457 41.317371 41.281051 41.241502 41.198764
41.152846 41.103797 41.051629 40.996401 40.938127 40.876878 40.812673 40.745590
40.675656 40.602958 40.527530 40.449468 40.368810 40.285665 40.200074 40.112155
40.021955 39.929600 39.835143 39.738714 39.640370 39.540249 39.438409 39.334992
39.230058 39.123751 39.016130 38.907343 38.797445 38.686584 38.574814 38.462278
38.349027 38.235201 38.120846 38.006096 37.890992 37.775661 37.660137 37.544540
37.428897 37.313320 37.197827 37.082521 36.967413 36.852596 36.738074 36.623930
36.510159 36.396833 36.283943 36.171549 36.059633 35.948249 35.837370 35.727040
35.617228 35.507966 35.399219 35.291010 35.183300 35.076102 34.969375 34.863122
34.757299 34.651903 34.546888 34.442243 34.337920 34.233903 34.130143 34.026618
33.923281 33.820103 33.717040 33.614056 33.511111
33.888889 34.021709 34.154573 34.287532 34.420623 34.553900 34.687396 34.821164
34.955232 35.089655 35.224452 35.359676 35.495340 35.631496 35.768146 35.905341
36.043071 36.181386 36.320264 36.459750 36.599813 36.740491 36.881740 37.023593
37.165994 37.308968 37.452448 37.596448 37.740890 37.885781 38.031026 38.176626
38.322474 38.468559 38.614763 38.761065 38.907334 39.053542 39.199546 39.345308
39.490675 39.635601 39.779923 39.923588 40.066427 40.208378 40.349266 40.489026
40.627477 40.764550 40.900063 41.033944 41.166011 41.296192 41.424307 41.550283
41.673946 41.795225 41.913954 42.030063 42.143395 42.253886 42.361387 42.465842
42.567111 42.665145 42.759817 42.851084 42.938831 43.023023 43.103559 43.180408
43.253481 43.322757 43.388159 43.449669 43.507222 43.560806 43.610368 43.655899
43.697355 43.734732 43.767995 43.797142 43.822146 43.843006 43.859706 43.872243
43.880609 43.884803 43.884823 43.880667 43.872342 43.859846 43.843191 43.822379
43.797428 43.768339 43.735140 43.697834 43.656456 43.611012 43.561547 43.508070
43.450635 43.389256 43.323998 43.254880 43.181979 43.105319 43.024991 42.941024
42.853521 42.762519 42.668134 42.570409 42.469474 42.365378 42.258263 42.148185
42.035297 41.919660 41.801437 41.680696 41.557605 41.432238 41.304770 41.175274
41.043933 40.910819 40.776116 40.639898 40.502349 40.363538 40.223648 40.082746
39.941009 39.798498 39.655386 39.511726 39.367684 39.223306 39.078748 38.934046
38.789348 38.644681 38.500179 38.355863 38.211853 38.068159 37.924892 37.782050
37.639731 37.497925 37.356717 37.216087 37.076107 36.936750 36.798074 36.660046
36.522711 36.386029 36.250032 36.114676 35.979982 35.845898 35.712437 35.579543
35.447216 35.315401 35.184088 35.053217 34.922772 34.792692 34.662952 34.533493
34.404281 34.275259 34.146388 34.017613 33.888889
34.266667 34.426118 34.585627 34.745243 34.905028 35.065026 35.225302 35.385891
35.546861 35.708238 35.870090 36.032434 36.195335 36.358802 36.522898 36.687618
36.853022 37.019095 37.185890 37.353378 37.521608 37.690537 37.860206 38.030557
38.201624 38.373334 38.545712 38.718668 38.892217 39.066255 39.240787 39.415691
39.590962 39.766464 39.942178 40.117955 40.293764 40.469441 40.644946 40.820101
40.994854 41.169016 41.342526 41.515184 41.686920 41.857528 42.026928 42.194909
42.361386 42.526143 42.689092 42.850015 43.008823 43.165299 43.319353 43.470774
43.619473 43.765245 43.908005 44.047557 44.183821 44.316613 44.445860 44.571388
44.693133 44.810935 44.924739 45.034400 45.139871 45.241022 45.337813 45.430132
45.517948 45.601161 45.679749 45.753626 45.822776 45.887128 45.946671 46.001346
46.051148 46.096028 46.135984 46.170979 46.201012 46.226058 46.246115 46.261167
46.271215 46.276251 46.276274 46.271285 46.261286 46.246284 46.226280 46.201293
46.171323 46.136398 46.096519 46.051724 46.002017 45.947446 45.888019 45.823795
45.754787 45.681067 45.602652 45.519629 45.432021 45.339929 45.243385 45.142505
45.037327 44.927985 44.814525 44.697094 44.575749 44.450652 44.321869 44.189573
44.053840 43.914856 43.772702 43.627576 43.479564 43.328875 43.175596 43.019942
42.862005 42.702003 42.540026 42.376296 42.210900 42.044059 41.875855 41.706507
41.536092 41.364820 41.192761 41.020120 40.846956 40.673463 40.499691 40.325823
40.151898 39.978085 39.804412 39.631034 39.457967 39.285352 39.113194 38.941616
38.770613 38.600293 38.430639 38.261744 38.093582 37.926228 37.759647 37.593900
37.428942 37.264821 37.101485 36.938965 36.777204 36.616221 36.455951 36.296402
36.137506 35.979258 35.821587 35.664476 35.507856 35.351697 35.195930 35.040518
34.885391 34.730505 34.575792 34.421200 34.266667
34.644444 34.830566 35.016751 35.203068 35.389575 35.576345 35.763426 35.950893
36.138787 36.327183 36.516111 36.705647 36.895807 37.086666 37.278228 37.470565
37.663665 37.857596 38.052331 38.247932 38.444356 38.641658 38.839777 39.038759
39.238528 39.439117 39.640433 39.842500 40.045203 40.248555 40.452426 40.656812
40.861566 41.066673 41.271965 41.477414 41.682837 41.888191 42.093277 42.298040
42.502265 42.705886 42.908675 43.110554 43.311285 43.510779 43.708792 43.905226
44.099829 44.292501 44.482986 44.671180 44.856826 45.039820 45.219909 45.396989
45.570814 45.741282 45.908158 46.071345 46.230619 46.385890 46.536949 46.683715
46.825994 46.963715 47.096700 47.224888 47.348121 47.466348 47.579427 47.687319
47.789899 47.887136 47.978925 48.065243 48.146000 48.221180 48.290710 48.354579
48.412727 48.465149 48.511797 48.552670 48.587731 48.616981 48.640396 48.657974
48.669704 48.675584 48.675611 48.669785 48.658113 48.640593 48.617242 48.588060
48.553073 48.512282 48.465723 48.413401 48.355363 48.291617 48.222223 48.147192
48.066602 47.980467 47.888879 47.791863 47.689526 47.581899 47.469110 47.351198
47.228307 47.100490 46.967907 46.830619 46.688808 46.542545 46.392026 46.237333
46.078680 45.916155 45.749987 45.580272 45.407249 45.231022 45.051838 44.869803
44.685172 44.498053 44.308703 44.117228 43.923886 43.728781 43.532167 43.334140
43.134952 42.934689 42.733595 42.531747 42.329376 42.126551 41.923488 41.720243
41.517021 41.313861 41.110952 40.908322 40.706142 40.504425 40.303325 40.102843
39.903112 39.704120 39.505984 39.308678 39.112301 38.916815 38.722301 38.528711
38.336108 38.144436 37.953739 37.763953 37.575107 37.387130 37.200037 37.013749
36.828267 36.643511 36.459465 36.276049 36.093235 35.910939 35.729125 35.547709
35.366643 35.185848 35.005265 34.824819 34.644444
35.022222 35.235054 35.447962 35.661016 35.874299 36.087871 36.301818 36.516191
36.731078 36.946518 37.162601 37.379353 37.596860 37.815135 38.034263 38.254240
38.475147 38.696962 38.919760 39.143503 39.368256 39.593963 39.820680 40.048331
40.276961 40.506474 40.736902 40.968129 41.200174 41.432898 41.666307 41.900242
42.134692 42.369477 42.604572 42.839776 43.075049 43.310171 43.545085 43.779555
44.013508 44.246693 44.479024 44.710234 44.940227 45.168724 45.395619 45.620624
45.843625 46.064332 46.282621 46.498203 46.710952 46.920578 47.126958 47.329806
47.529002 47.724270 47.915494 48.102410 48.284910 48.462746 48.635818 48.803896
48.966892 49.124593 49.276923 49.423691 49.564832 49.700176 49.829670 49.953164
50.070618 50.181902 50.286985 50.385758 50.478198 50.564215 50.643794 50.716859
50.783404 50.843368 50.896747 50.943495 50.983613 51.017066 51.043854 51.063958
51.077377 51.084102 51.084133 51.077471 51.064117 51.044081 51.017365 50.983990
50.943958 50.897303 50.844027 50.784177 50.717759 50.644833 50.565409 50.479565
50.387314 50.288751 50.183898 50.072867 49.955690 49.832500 49.703336 49.568353
49.427603 49.281260 49.129389 48.972183 48.809722 48.642219 48.469763 48.292590
48.110798 47.924639 47.734223 47.539817 47.341538 47.139664 46.934318 46.725788
46.514200 46.299846 46.082853 45.863516 45.641956 45.418470 45.193172 44.966354
44.738123 44.508761 44.278365 44.047208 43.815373 43.583119 43.350516 43.117807
42.885047 42.652461 42.420089 42.188136 41.956626 41.725745 41.495501 41.266059
41.037411 40.809700 40.582905 40.357148 40.132393 39.908741 39.686144 39.464682
39.244297 39.025047 38.806865 38.589791 38.373748 38.158758 37.944738 37.731693
37.519534 37.308251 37.097751 36.888008 36.678929 36.470475 36.262550 36.055106
35.848047 35.641313 35.434814 35.228479 35.022222
35.400000 35.639590 35.879264 36.119111 36.359206 36.599644 36.840490 37.081842
37.323752 37.566321 37.809586 38.053647 38.298528 38.544325 38.791046 39.038782
39.287523 39.537354 39.788246 40.040276 40.293392 40.547665 40.803020 41.059514
41.317052 41.575678 41.835272 42.095865 42.357312 42.619629 42.882647 43.146365
43.410591 43.675305 43.940292 44.205516 44.470738 44.735904 45.000755 45.265219
45.529018 45.792063 46.054061 46.314907 46.574293 46.832101 47.088013 47.341901
47.593437 47.842487 48.088719 48.331994 48.571981 48.808537 49.041338 49.270242
49.494932 49.715273 49.930959 50.141861 50.347692 50.548331 50.743508 50.933117
51.116908 51.294788 51.466529 51.632053 51.791155 51.943770 52.089719 52.228950
52.361307 52.486751 52.605149 52.716471 52.820607 52.917538 53.007172 53.089497
53.164439 53.231993 53.292102 53.344763 53.389933 53.427614 53.457775 53.480418
53.495526 53.503100 53.503135 53.495632 53.480598 53.458031 53.427952 53.390360
53.345286 53.292730 53.232738 53.165312 53.090512 53.008345 52.918887 52.822149
52.718227 52.607140 52.489002 52.363843 52.231798 52.092908 51.947332 51.795122
51.636461 51.471414 51.300190 51.122868 50.939678 50.750715 50.556233 50.356338
50.151305 49.941254 49.726478 49.507106 49.283447 49.055639 48.824002 48.588678
48.349998 48.108104 47.863331 47.615820 47.365907 47.113727 46.859613 46.603692
46.346289 46.087522 45.827703 45.566937 45.305523 45.043550 44.781301 44.518848
44.256455 43.994176 43.732253 43.470724 43.209809 42.949525 42.690070 42.431445
42.173821 41.917183 41.661680 41.407279 41.154104 40.902108 40.651392 40.401896
40.153697 39.906723 39.661029 39.416532 39.173268 38.931144 38.690176 38.450265
38.211408 37.973502 37.736525 37.500371 37.265003 37.030315 36.796254 36.562715
36.329633 36.096904 35.864453 35.632180 35.400000
35.777778 36.044176 36.310673 36.577356 36.844329 37.111672 37.379493 37.647857
37.916877 38.186604 38.457150 38.728551 39.000916 39.274264 39.548702 39.824227
40.100941 40.378821 40.657961 40.938314 41.219965 41.502844 41.787023 42.072408
42.359058 42.646852 42.935833 43.225856 43.516944 43.808927 44.101811 44.395396
44.689670 44.984409 45.279577 45.574926 45.870402 46.165729 46.460835 46.755421
47.049396 47.342440 47.634443 47.925071 48.214195 48.501467 48.786746 49.069672
49.350094 49.627644 49.902166 50.173290 50.440855 50.704494 50.964046 51.219151
51.469652 51.715202 51.955649 52.190663 52.420103 52.643657 52.861197 53.072434
53.277255 53.475395 53.666757 53.851102 54.028350 54.198289 54.360854 54.515861
54.663259 54.802889 54.934716 55.058605 55.174533 55.282386 55.382152 55.473738
55.557139 55.632283 55.699167 55.757737 55.807994 55.849898 55.883453 55.908633
55.925440 55.933863 55.933902 55.925559 55.908834 55.883740 55.850276 55.808470
55.758320 55.699868 55.633114 55.558113 55.474871 55.383460 55.283889 55.176251
55.060561 54.936935 54.805396 54.666083 54.519032 54.364405 54.202254 54.032766
53.856007 53.672193 53.481404 53.283885 53.079731 52.869214 52.652445 52.429719
52.201164 51.967098 51.727660 51.483188 51.233832 50.979945 50.721685 50.459417
50.193303 49.923714 49.650812 49.374973 49.096353 48.815326 48.532043 48.246870
47.959948 47.671631 47.382047 47.091537 46.800212 46.508395 46.216180 45.923869
45.631535 45.339459 45.047695 44.756498 44.465900 44.176133 43.887208 43.599329
43.312489 43.026864 42.742428 42.459331 42.177529 41.897147 41.618122 41.340555
41.064369 40.789639 40.516275 40.244329 39.973702 39.704420 39.436376 39.169577
38.903908 38.639355 38.375800 38.113210 37.851466 37.590516 37.330242 37.070577
36.811404 36.552644 36.294183 36.035930 35.777778
36.155556 36.448821 36.742190 37.035775 37.329671 37.623995 37.918829 38.214295
38.510459 38.807446 39.105304 39.404159 39.704039 40.005068 40.307253 40.610713
40.915433 41.221523 41.528947 41.837802 42.148028 42.459710 42.772762 43.087254
43.403071 43.720268 44.038701 44.358407 44.679213 45.001136 45.323972 45.647718
45.972141 46.297214 46.622678 46.948481 47.274336 47.600170 47.925668 48.250737
48.575036 48.898450 49.220620 49.541410 49.860441 50.177564 50.492385 50.804739
51.114223 51.420664 51.723653 52.023011 52.318328 52.609424 52.895896 53.177563
53.454034 53.725137 53.990493 54.249941 54.503124 54.749891 54.989911 55.223049
55.449000 55.667646 55.878711 56.082097 56.277557 56.465010 56.644240 56.815186
56.977659 57.131615 57.276894 57.413465 57.541195 57.660065 57.769966 57.870889
57.962748 58.045538 58.119194 58.183715 58.239053 58.285211 58.322155 58.349889
58.368393 58.377670 58.377713 58.368524 58.350111 58.322472 58.285629 58.239580
58.184360 58.119969 58.046456 57.963824 57.872141 57.771411 57.661724 57.543091
57.415623 57.279341 57.134380 56.980773 56.818682 56.648154 56.469380 56.282422
56.087502 55.884699 55.674266 55.456301 55.231086 54.998738 54.759568 54.513710
54.261502 54.003095 53.738851 53.468932 53.193722 52.913394 52.628345 52.338756
52.045035 51.747365 51.446160 51.141599 50.834099 50.523832 50.211209 49.896393
49.579785 49.261535 48.942029 48.621401 48.300018 47.977994 47.655677 47.333159
47.010763 46.688559 46.366843 46.045663 45.725288 45.405741 45.087262 44.769853
44.453724 44.138854 43.825424 43.513394 43.202914 42.893925 42.586549 42.280710
41.976502 41.673833 41.372770 41.073209 40.775191 40.478603 40.183459 39.889638
39.597133 39.305816 39.015659 38.726530 38.438381 38.151080 37.864561 37.578692
37.293393 37.008534 36.724021 36.439730 36.155556
36.533333 36.853522 37.173831 37.494369 37.815264 38.136613 38.458549 38.781154
39.104564 39.428845 39.754133 40.080473 40.408002 40.736742 41.066825 41.398251
41.731144 42.065480 42.401373 42.738772 43.077777 43.418311 43.760459 44.104114
44.449344 44.796010 45.144162 45.493629 45.844441 46.196392 46.549491 46.903501
47.258403 47.613930 47.970038 48.326428 48.683033 49.039520 49.395799 49.751510
50.106536 50.460494 50.813245 51.164381 51.513744 51.860910 52.205701 52.547681
52.886659 53.222190 53.554074 53.881863 54.205353 54.524098 54.837896 55.146309
55.449141 55.745967 56.036601 56.320640 56.597908 56.868029 57.130844 57.386004
57.633370 57.872623 58.103646 58.326154 58.540048 58.745078 58.941167 59.128096
59.305809 59.474119 59.632986 59.782255 59.921900 60.051793 60.171920 60.282179
60.382565 60.472997 60.553476 60.623942 60.684399 60.734804 60.775162 60.805445
60.825657 60.835786 60.835834 60.825802 60.805688 60.775510 60.735263 60.684977
60.624650 60.554326 60.474003 60.383744 60.283549 60.173503 60.053609 59.923976
59.784617 59.635664 59.477144 59.309215 59.131919 58.945446 58.749854 58.545366
58.332059 58.110189 57.879855 57.641346 57.394782 57.140485 56.878596 56.609469
56.333262 56.050361 55.760939 55.465405 55.163948 54.856997 54.544749 54.227649
53.905900 53.579953 53.250013 52.916536 52.579720 52.240019 51.897623 51.552976
51.206255 50.857892 50.508045 50.157129 49.805281 49.452895 49.100084 48.747217
48.394384 48.041923 47.689901 47.338625 46.988137 46.638712 46.290365 45.943341
45.597630 45.253444 44.910749 44.569725 44.230317 43.892672 43.556715 43.222563
42.890123 42.559480 42.230528 41.903323 41.577745 41.253823 40.931427 40.610559
40.291083 39.972977 39.656097 39.340402 39.025744 38.712061 38.399207 38.087099
37.775595 37.464596 37.153964 36.843587 36.533333
36.911111 37.258289 37.605594 37.953160 38.301103 38.649565 38.998645 39.348491
39.699185 40.050877 40.403628 40.757588 41.112796 41.469400 41.827413 42.186976
42.548078 42.910849 43.275251 43.641402 44.009235 44.378851 44.750151 45.123222
45.497930 45.874342 46.252290 46.631819 47.012726 47.395032 47.778498 48.163119
48.548621 48.934972 49.321863 49.709233 50.096740 50.484295 50.871523 51.258308
51.644246 52.029195 52.412724 52.794666 53.174569 53.552246 53.927225 54.299302
54.667995 55.033087 55.394087 55.750772 56.102652 56.449501 56.790835 57.126432
57.455821 57.778788 58.094882 58.403901 58.705420 58.999254 59.285008 59.562518
59.831421 60.091575 60.342656 60.584544 60.816950 61.039781 61.252785 61.455890
61.648880 61.831706 62.004184 62.166283 62.317852 62.458874 62.589228 62.708906
62.817813 62.915950 63.003245 63.079703 63.145270 63.199953 63.243717 63.276567
63.298484 63.309472 63.309524 63.298642 63.276833 63.244096 63.200453 63.145899
63.080474 63.004171 62.917047 62.819097 62.710397 62.590949 62.460850 62.320109
62.168851 62.007094 61.834992 61.652580 61.460042 61.257431 61.044967 60.822722
60.590953 60.349755 60.099422 59.840073 59.572040 59.295464 59.010714 58.717956
58.417589 58.109800 57.795020 57.473453 57.145554 56.811540 56.471886 56.126818
55.776825 55.422134 55.063242 54.700373 54.334024 53.964414 53.592031 53.217081
52.840043 52.461102 52.080721 51.699066 51.316574 50.933388 50.549920 50.166285
49.782866 49.399752 49.017291 48.635544 48.254827 47.875170 47.496856 47.119888
46.744511 46.370702 45.998672 45.628372 45.259977 44.893416 44.528831 44.166128
43.805417 43.446586 43.089712 42.734669 42.381501 42.030072 41.680397 41.332329
40.985856 40.640824 40.297197 39.954815 39.613619 39.273450 38.934227 38.595790
38.258042 37.920826 37.584029 37.247500 36.911111
37.288889 37.663119 38.037493 38.412142 38.787219 39.162840 39.539165 39.916292
40.294386 40.673524 41.053871 41.435484 41.818524 42.203024 42.589138 42.976872
43.366374 43.757619 44.150744 44.545693 44.942588 45.341339 45.742052 46.144602
46.549073 46.955306 47.363360 47.773040 48.184380 48.597144 49.011340 49.426694
49.843185 50.260500 50.678586 51.097094 51.515940 51.934738 52.353374 52.771427
53.188754 53.604904 54.019704 54.432676 54.843625 55.252047 55.657726 56.060143
56.459065 56.853962 57.244590 57.630415 58.011187 58.386376 58.755733 59.118740
59.475152 59.824470 60.166462 60.500654 60.826831 61.144549 61.453615 61.753620
62.044396 62.325573 62.597008 62.858372 63.109550 63.350254 63.580395 63.799725
64.008180 64.205551 64.391794 64.566737 64.730356 64.882509 65.023187 65.152279
65.269783 65.375616 65.469782 65.552219 65.622935 65.681886 65.729081 65.764492
65.788125 65.799969 65.800026 65.788296 65.764780 65.729492 65.682428 65.623618
65.553054 65.470785 65.376802 65.271173 65.153892 65.025050 64.884646 64.732796
64.569512 64.394938 64.209100 64.012175 63.804207 63.585411 63.355850 63.115779
62.865286 62.604667 62.334035 62.053728 61.763887 61.464889 61.156903 60.840345
60.515408 60.182542 59.841963 59.494154 59.139345 58.778044 58.410496 58.037226
57.658484 57.274808 56.886449 56.493947 56.097548 55.697789 55.294904 54.889421
54.481555 54.071818 53.660406 53.247805 52.834187 52.420012 52.005423 51.590850
51.176404 50.762482 50.349165 49.936812 49.525473 49.115469 48.706821 48.299809
47.894424 47.490910 47.089228 46.689583 46.291911 45.896378 45.502898 45.111600
44.722376 44.335320 43.950305 43.567392 43.186440 42.807477 42.430349 42.055054
41.681430 41.309446 40.938934 40.569839 40.201987 39.835301 39.469606 39.104804
38.740723 38.377247 38.014209 37.651475 37.288889
37.666667 38.068020 38.469524 38.871338 39.273600 39.676477 40.080090 40.484612
40.890142 41.296858 41.704836 42.114252 42.525156 42.937721 43.351970 43.768067
44.186005 44.605939 45.027829 45.451814 45.877821 46.305972 46.736156 47.168476
47.602783 48.039154 48.477402 48.917578 49.359453 49.803049 50.248097 50.694587
51.142206 51.590914 52.040357 52.490459 52.940826 53.391349 53.841595 54.291421
54.740358 55.188232 55.634542 56.079084 56.521329 56.961048 57.397689 57.831003
58.260422 58.685682 59.106206 59.521721 59.931650 60.335717 60.733353 61.124285
61.507962 61.884121 62.252235 62.612057 62.963092 63.305115 63.637666 63.960549
64.273343 64.575881 64.867788 65.148926 65.418965 65.677798 65.925139 66.160910
66.384869 66.596963 66.796992 66.984925 67.160598 67.323997 67.474994 67.613587
67.739677 67.853270 67.954293 68.042756 68.118607 68.181858 68.232473 68.270462
68.295807 68.308512 68.308573 68.295991 68.270773 68.232916 68.182443 68.119343
68.043657 67.955373 67.854549 67.741173 67.615325 67.476998 67.326296 67.163222
66.987909 66.800372 66.600778 66.389161 66.165725 65.930525 65.683807 65.425651
65.156348 64.876007 64.584963 64.283354 63.971563 63.649759 63.318367 62.977584
62.627880 62.269477 61.902880 61.528335 61.146377 60.757271 60.361575 59.959563
59.551810 59.138596 58.720504 58.297808 57.871094 57.440626 57.006981 56.570408
56.131469 55.690390 55.247713 54.803638 54.358678 53.913005 53.467099 53.021100
52.575451 52.130260 51.685931 51.242537 50.800441 50.359682 49.920583 49.483149
49.047659 48.614089 48.182675 47.753362 47.326347 46.901547 46.479119 46.058956
45.641176 45.225651 44.812461 44.401460 43.992693 43.586000 43.181393 42.778698
42.377898 41.978810 41.581388 41.185445 40.790908 40.397588 40.005388 39.614121
39.223668 38.833846 38.444519 38.055510 37.666667
38.044444 38.472987 38.901699 39.330735 39.760274 40.190455 40.621465 41.053421
41.486516 41.920845 42.356599 42.793850 43.232785 43.673449 44.116021 44.560516
45.007104 45.455766 45.906658 46.359726 46.815111 47.272717 47.732666 48.194824
48.659288 49.125881 49.594673 50.065446 50.538238 51.012786 51.489098 51.966863
52.446055 52.926319 53.407591 53.889473 54.371863 54.854318 55.336702 55.818531
56.299630 56.779480 57.257871 57.734251 58.208380 58.679678 59.147879 59.612381
60.072899 60.528817 60.979836 61.425335 61.865009 62.298239 62.724723 63.143855
63.555340 63.958596 64.353342 64.739026 65.115392 65.481923 65.838391 66.184324
66.519523 66.843564 67.156283 67.457304 67.746497 68.023537 68.288327 68.540590
68.780260 69.007106 69.221088 69.422019 69.609879 69.784519 69.945938 70.094018