<?xml version="1.0"?>
<VTKFile type="ImageData" version="0.1" byte_order="LittleEndian">
  <ImageData WholeExtent="0 180 0 180 0 0" Origin="0.0 0.0 0.0" Spacing="0.05 0.05 1">
    <Piece Extent="0 180 0 180 0 0">
      <PointData Scalars="Temperature">
        <DataArray type="Float32" Name="Temperature" format="ascii">
32.000000 32.000000 32.000000 32.000000 32.000000 32.000000 32.000000 32.000000 32.000000 32.000000 32.000000 32.000000 32.000000 32.000000 32.000000 32.000000 32.000000 32.000000 32.000000 32.000000 32.000000 32.000000 32.000000 32.000000 32.000000 32.000000 32.000000 32.000000 32.000000 32.000000 32.000000 32.000000 32.000000 32.000000 32.000000 32.000000 32.000000 32.000000 32.000000 32.000000 32.000000 32.000000 32.000000 32.000000 32.000000 32.000000 32.000000 32.000000 32.000000 32.000000 32.000000 32.000000 32.000000 32.000000 32.000000 32.000000 32.000000 32.000000 32.000000 32.000000 32.000000 32.000000 32.000000 32.000000 32.000000 32.000000 32.000000 32.000000 32.000000 32.000000 32.000000 32.000000 32.000000 32.000000 32.000000 32.000000 32.000000 32.000000 32.000000 32.000000 32.000000 32.000000 32.000000 32.000000 32.000000 32.000000 32.000000 32.000000 32.000000 32.000000 32.000000 32.000000 32.000000 32.000000 32.000000 32.000000 32.000000 32.000000 32.000000 32.000000 32.000000 32.000000 32.000000 32.000000 32.000000 32.000000 32.000000 32.000000 32.000000 32.000000 32.000000 32.000000 32.000000 32.000000 32.000000 32.000000 32.000000 32.000000 32.000000 32.000000 32.000000 32.000000 32.000000 32.000000 32.000000 32.000000 32.000000 32.000000 32.000000 32.000000 32.000000 32.000000 32.000000 32.000000 32.000000 32.000000 32.000000 32.000000 32.000000 32.000000 32.000000 32.000000 32.000000 32.000000 32.000000 32.000000 32.000000 32.000000 32.000000 32.000000 32.000000 32.000000 32.000000 32.000000 32.000000 32.000000 32.000000 32.000000 32.000000 32.000000 32.000000 32.000000 32.000000 32.000000 32.000000 32.000000 32.000000 32.000000 32.000000 32.000000 32.000000 32.000000 32.000000 32.000000 32.000000 32.000000 32.000000 32.000000 32.000000 32.000000 32.000000
32.377778 32.392716 32.407676 32.422681 32.437749 32.452908 32.468171 32.483567 32.499107 32.514823 32.530720 32.546830 32.563157 32.579733 32.596556 32.613661 32.631041 32.648729 32.666715 32.685033 32.703665 32.722648 32.741957 32.761628 32.781632 32.802004 32.822709 32.843780 32.865179 32.886937 32.909010 32.931427 32.954139 32.977174 33.000479 33.024079 33.047916 33.072012 33.096307 33.120821 33.145489 33.170328 33.195272 33.220335 33.245446 33.270621 33.295786 33.320954 33.346049 33.371084 33.395982 33.420754 33.445325 33.469703 33.493813 33.517664 33.541183 33.564378 33.587177 33.609587 33.631542 33.653047 33.674039 33.694524 33.714442 33.733801 33.752543 33.770677 33.788151 33.804971 33.821092 33.836521 33.851215 33.865182 33.878386 33.890834 33.902492 33.913369 33.923436 33.932701 33.941140 33.948759 33.955539 33.961486 33.966585 33.970839 33.974239 33.976788 33.978479 33.979314 33.979290 33.978408 33.976669 33.974073 33.970625 33.966322 33.961175 33.955180 33.948351 33.940684 33.932196 33.922881 33.912764 33.901837 33.890129 33.877631 33.864377 33.850359 33.835614 33.820135 33.803964 33.787093 33.769569 33.751386 33.732594 33.713187 33.693222 33.672690 33.651652 33.630103 33.608106 33.585656 33.562818 33.539588 33.516036 33.492155 33.468017 33.443616 33.419027 33.394240 33.369331 33.344292 33.319197 33.294036 33.268884 33.243729 33.218645 33.193618 33.168719 33.143932 33.119327 33.094885 33.070673 33.046671 33.022940 32.999459 32.976285 32.953394 32.930841 32.908597 32.886713 32.865160 32.843982 32.823149 32.802699 32.782602 32.762890 32.743531 32.724554 32.705923 32.687663 32.669739 32.652170 32.634919 32.618001 32.601379 32.585063 32.569016 32.553244 32.537711 32.522417 32.507328 32.492438 32.477717 32.463153 32.448718 32.434397 32.420163 32.405998 32.391876 32.377778
32.755556 32.785449 32.815388 32.845412 32.875572 32.905899 32.936451 32.967252 32.998363 33.029800 33.061627 33.093852 33.126542 33.159696 33.193384 33.227594 33.262398 33.297774 33.333794 33.370427 33.407745 33.445706 33.484381 33.523719 33.563788 33.604526 33.646001 33.688139 33.731005 33.774515 33.818732 33.863561 33.909060 33.955127 34.001813 34.049009 34.096762 34.144953 34.193624 34.242650 34.292069 34.341747 34.391718 34.441843 34.492152 34.542501 34.592917 34.643252 34.693528 34.743598 34.793479 34.843023 34.892247 34.941002 34.989303 35.037005 35.084120 35.130508 35.176180 35.220999 35.264978 35.307986 35.350036 35.391003 35.430901 35.469614 35.507155 35.543417 35.578416 35.612051 35.644338 35.675189 35.704619 35.732547 35.758991 35.783879 35.807227 35.828974 35.849136 35.867659 35.884559 35.899791 35.913369 35.925258 35.935468 35.943973 35.950782 35.955877 35.959263 35.960932 35.960884 35.959121 35.955639 35.950449 35.943544 35.934943 35.924636 35.912651 35.898976 35.883646 35.866648 35.848026 35.827766 35.805919 35.782470 35.757482 35.730937 35.702908 35.673377 35.642425 35.610037 35.576301 35.541203 35.504841 35.467202 35.428393 35.388399 35.347339 35.305199 35.262103 35.218039 35.173139 35.127391 35.080932 35.033750 34.985988 34.937633 34.888831 34.839569 34.789995 34.740094 34.690015 34.639740 34.589419 34.539029 34.488720 34.438466 34.388412 34.338529 34.288957 34.239664 34.190783 34.142277 34.094276 34.046734 33.999776 33.953351 33.907574 33.862392 33.817910 33.774071 33.730970 33.688547 33.646885 33.605922 33.565732 33.526248 33.487535 33.449523 33.412266 33.375694 33.339849 33.304661 33.270162 33.236279 33.203037 33.170363 33.138270 33.106688 33.075620 33.044997 33.014815 32.985006 32.955556 32.926402 32.897523 32.868857 32.840377 32.812027 32.783769 32.755556
33.133333 33.178218 33.223166 33.268251 33.313527 33.359073 33.404933 33.451195 33.497890 33.545111 33.592878 33.641288 33.690347 33.740158 33.790712 33.842113 33.894339 33.947496 34.001547 34.056597 34.112594 34.169644 34.227677 34.286798 34.346923 34.408153 34.470387 34.533724 34.598047 34.663449 34.729800 34.797186 34.865464 34.934713 35.004774 35.075723 35.147386 35.219831 35.292875 35.366578 35.440744 35.515428 35.590425 35.665782 35.741288 35.816983 35.892649 35.968322 36.043780 36.119053 36.193918 36.268401 36.342278 36.415573 36.488065 36.559775 36.630486 36.700218 36.768760 36.836132 36.902132 36.966779 37.029880 37.091456 37.151326 37.209510 37.265841 37.320340 37.372851 37.423399 37.471841 37.518201 37.562353 37.604320 37.643989 37.681385 37.716409 37.749084 37.779326 37.807157 37.832505 37.855390 37.875754 37.893615 37.908928 37.921706 37.931918 37.939573 37.944651 37.947158 37.947086 37.944437 37.939216 37.931419 37.921064 37.908142 37.892684 37.874679 37.854168 37.831137 37.805642 37.777664 37.747273 37.714449 37.679275 37.641728 37.601907 37.559789 37.515486 37.468974 37.420381 37.369682 37.317021 37.262374 37.205896 37.147566 37.087554 37.025839 36.962602 36.897823 36.831697 36.764204 36.695547 36.625707 36.554897 36.483096 36.410524 36.337159 36.263224 36.188697 36.113802 36.038514 35.963059 35.887406 35.811780 35.736145 35.660723 35.585472 35.510607 35.436082 35.362104 35.288619 35.215825 35.143662 35.072318 35.001724 34.932057 34.863242 34.795442 34.728576 34.662792 34.598004 34.534345 34.471723 34.410257 34.349849 34.290604 34.232419 34.175382 34.119389 34.064513 34.010645 33.957845 33.906002 33.855160 33.805210 33.756180 33.707960 33.660566 33.613891 33.567934 33.522593 33.477854 33.433618 33.389860 33.346485 33.303456 33.260686 33.218125 33.175694 33.133333
33.511111 33.571036 33.631053 33.691239 33.751699 33.812496 33.873743 33.935490 33.997858 34.060882 34.124688 34.189294 34.254834 34.321307 34.388849 34.457442 34.527225 34.598159 34.670386 34.743846 34.818680 34.894807 34.972368 35.051260 35.131622 35.213329 35.296515 35.381036 35.467018 35.554298 35.642996 35.732927 35.824204 35.916624 36.010291 36.104982 36.200793 36.297486 36.395146 36.493520 36.592684 36.692370 36.792646 36.893234 36.994192 37.095232 37.196405 37.297418 37.398312 37.498790 37.598890 37.698313 37.797091 37.894928 37.991850 38.087568 38.182106 38.275180 38.366814 38.456734 38.544964 38.631242 38.715592 38.797767 38.877792 38.955435 39.030724 39.103443 39.173622 39.241064 39.305799 39.367649 39.426646 39.482631 39.535635 39.585518 39.632311 39.675894 39.716295 39.753413 39.787275 39.817795 39.844999 39.868818 39.889272 39.906312 39.919952 39.930160 39.936943 39.940285 39.940191 39.936658 39.929685 39.919288 39.905457 39.888225 39.867579 39.843567 39.816169 39.785454 39.751397 39.714082 39.673482 39.629701 39.582708 39.532624 39.479419 39.423233 39.364034 39.301983 39.237046 39.169403 39.099025 39.026107 38.950623 38.872787 38.792571 38.710211 38.625680 38.539227 38.450827 38.360746 38.268959 38.175742 38.081071 37.985234 37.888203 37.790275 37.691420 37.591938 37.491798 37.391300 37.290409 37.189424 37.088304 36.987346 36.886498 36.786053 36.685953 36.586480 36.487566 36.389483 36.292156 36.195842 36.100455 36.006238 35.913097 35.821258 35.730616 35.641381 35.553439 35.466980 35.381882 35.298316 35.216154 35.135546 35.056356 34.978714 34.902482 34.827767 34.754426 34.682548 34.611986 34.542809 34.474871 34.408218 34.342705 34.278360 34.215040 34.152752 34.091358 34.030848 33.971087 33.912047 33.853602 33.795707 33.738242 33.681149 33.624316 33.567670 33.511111
33.888889 33.963926 34.039070 34.114443 34.190135 34.266280 34.342951 34.420295 34.498365 34.577316 34.657181 34.738124 34.820155 34.903444 34.987979 35.073934 35.161271 35.250169 35.340564 35.432635 35.526293 35.621716 35.718788 35.817685 35.918265 36.020698 36.124817 36.230784 36.338408 36.447842 36.558869 36.671633 36.785895 36.901786 37.019043 37.137789 37.257737 37.378999 37.501267 37.624641 37.748796 37.873820 37.999373 38.125531 38.251940 38.378667 38.505348 38.632040 38.758373 38.884395 39.009733 39.134429 39.258110 39.380812 39.502166 39.622206 39.740570 39.857288 39.972010 40.084765 40.195218 40.303399 40.408987 40.512013 40.612178 40.709515 40.803742 40.894897 40.982721 41.067252 41.148255 41.225769 41.299584 41.369740 41.436050 41.498554 41.557088 41.611693 41.662228 41.708729 41.751079 41.789313 41.823334 41.853170 41.878749 41.900093 41.917151 41.929936 41.938418 41.942605 41.942487 41.938063 41.929344 41.916321 41.899026 41.877444 41.851625 41.821547 41.787284 41.748808 41.706213 41.659467 41.608685 41.553832 41.495048 41.432294 41.365733 41.295326 41.221259 41.143492 41.062238 40.977457 40.889384 40.797982 40.703509 40.605932 40.505530 40.402271 40.296457 40.188058 40.077394 39.964437 39.849524 39.732627 39.614099 39.493908 39.372420 39.249602 39.125826 39.001056 38.875669 38.749623 38.623295 38.496637 38.370023 38.243397 38.117128 37.991148 37.865817 37.741058 37.617217 37.494206 37.372356 37.251567 37.132152 37.013999 36.897400 36.782234 36.668770 36.556875 36.446795 36.338387 36.231873 36.127099 36.024263 35.923203 35.824092 35.726758 35.631350 35.537692 35.445906 35.355811 35.267503 35.180802 35.095777 35.012246 34.930255 34.849625 34.770375 34.692331 34.615489 34.539680 34.464877 34.390919 34.317759 34.245242 34.173303 34.101798 34.030644 33.959708 33.888889
34.266667 34.356897 34.447266 34.537891 34.628928 34.720475 34.812701 34.905681 34.999600 35.094507 35.190596 35.287893 35.386600 35.486714 35.588445 35.691761 35.796876 35.903729 36.012535 36.123203 36.235947 36.350647 36.467513 36.586393 36.707491 36.830627 36.955997 37.083387 37.212987 37.344552 37.478261 37.613838 37.751451 37.890796 38.032026 38.174812 38.319291 38.465110 38.612391 38.760758 38.910320 39.060677 39.211927 39.363654 39.515940 39.668355 39.820970 39.973345 40.125541 40.277111 40.428106 40.578079 40.727074 40.874644 41.020830 41.165193 41.307768 41.448127 41.586306 41.721890 41.854915 41.984987 42.112140 42.236002 42.356612 42.473620 42.587067 42.696631 42.802355 42.903945 43.001445 43.094591 43.183428 43.267720 43.347516 43.422605 43.493035 43.558627 43.619425 43.675276 43.726224 43.772141 43.813064 43.848894 43.879661 43.905292 43.925807 43.941159 43.951362 43.956390 43.956248 43.950937 43.940451 43.924815 43.904014 43.878098 43.847044 43.810926 43.769713 43.723505 43.672265 43.616120 43.555026 43.489137 43.418408 43.343020 43.262924 43.178330 43.089191 42.995744 42.897942 42.796052 42.690029 42.580169 42.466429 42.349132 42.228238 42.104098 41.976674 41.846340 41.713062 41.577237 41.438829 41.298256 41.155482 41.010940 40.864593 40.716885 40.567775 40.417715 40.266660 40.115062 39.962872 39.810539 39.658003 39.505712 39.353593 39.202082 39.051097 38.901060 38.751875 38.603947 38.457166 38.311917 38.168076 38.026005 37.885565 37.747093 37.610437 37.475906 37.343334 37.213004 37.084735 36.958781 36.834951 36.713468 36.594131 36.477133 36.362266 36.249690 36.139191 36.030901 35.924601 35.820390 35.718051 35.617652 35.518975 35.422060 35.326692 35.232883 35.140424 35.049297 34.959301 34.870394 34.782384 34.695204 34.608674 34.522703 34.437126 34.351830 34.266667
34.644444 34.749975 34.855656 34.961659 35.068111 35.175204 35.283039 35.391823 35.501630 35.612681 35.725020 35.838881 35.954277 36.071449 36.190378 36.311312 36.434197 36.559284 36.686487 36.816054 36.947865 37.082167 37.218801 37.358011 37.499602 37.643809 37.790402 37.939606 38.091155 38.245263 38.401627 38.560448 38.721389 38.884637 39.049821 39.217111 39.386107 39.556962 39.729246 39.903097 40.078058 40.254251 40.431196 40.608999 40.787163 40.965777 41.144331 41.322899 41.500964 41.678588 41.855247 42.030995 42.205309 42.378236 42.549257 42.718413 42.885199 43.049653 43.211283 43.370127 43.525714 43.678083 43.826785 43.971862 44.112894 44.249924 44.382562 44.510856 44.634447 44.753385 44.867345 44.976380 45.080199 45.178856 45.272093 45.359966 45.442250 45.518998 45.590018 45.655362 45.714868 45.768583 45.816376 45.858288 45.894218 45.924196 45.948153 45.966109 45.978023 45.983904 45.983739 45.977528 45.965285 45.946999 45.922711 45.892400 45.856136 45.813890 45.765759 45.711706 45.651859 45.586173 45.514809 45.437715 45.355085 45.266863 45.173276 45.074267 44.970098 44.860710 44.746400 44.627112 44.503174 44.374535 44.241556 44.104188 43.962826 43.817425 43.668408 43.515733 43.359852 43.200727 43.038831 42.874127 42.707111 42.537744 42.366537 42.193449 42.019002 41.843152 41.666424 41.488768 41.310710 41.132190 40.953732 40.775261 40.597294 40.419743 40.243109 40.067290 39.892771 39.719431 39.547734 39.377543 39.209295 39.042838 38.878580 38.716351 38.556530 38.398930 38.243897 38.091230 37.941239 37.793711 37.648920 37.506641 37.367113 37.230099 37.095803 36.963980 36.834798 36.708005 36.583735 36.461732 36.342095 36.224567 36.109211 35.995774 35.884285 35.774497 35.666404 35.559767 35.454550 35.350524 35.247623 35.145629 35.044450 34.943883 34.843810 34.744045 34.644444
35.022222 35.143164 35.264290 35.385762 35.507788 35.630499 35.754123 35.878763 36.004664 36.131895 36.260716 36.391163 36.523505 36.657743 36.794154 36.932701 37.073668 37.216976 37.362912 37.511359 37.662599 37.816477 37.973270 38.132780 38.295279 38.460526 38.628784 38.799770 38.973734 39.150353 39.329862 39.511898 39.696680 39.883805 40.073475 40.265250 40.459313 40.655190 40.853043 41.052368 41.253309 41.455332 41.658561 41.862441 42.067077 42.271895 42.476983 42.681753 42.886280 43.089967 43.292876 43.494409 43.694617 43.892906 44.089321 44.283276 44.474812 44.663359 44.848956 45.031052 45.209689 45.384340 45.555049 45.721319 45.883197 46.040220 46.192440 46.339427 46.481239 46.617483 46.748221 46.873100 46.992182 47.105155 47.212081 47.312687 47.407037 47.494892 47.576314 47.651103 47.719315 47.780787 47.835567 47.883525 47.924704 47.959005 47.986460 48.007004 48.020657 48.027387 48.027199 48.020095 48.006066 47.985145 47.957313 47.922633 47.881075 47.832735 47.777571 47.715714 47.647114 47.571935 47.490121 47.401872 47.307127 47.206123 47.098797 46.985425 46.865942 46.740663 46.609525 46.472882 46.330673 46.183293 46.030684 45.873277 45.711021 45.544382 45.373313 45.198313 45.019341 44.836924 44.651023 44.462192 44.270392 44.076199 43.879571 43.681099 43.480738 43.279090 43.076103 42.872380 42.667861 42.463149 42.258169 42.053518 41.849106 41.645516 41.442643 41.241050 41.040614 40.841876 40.644693 40.449579 40.256371 40.065553 39.876941 39.690985 39.507484 39.326849 39.148861 38.973894 38.801711 38.632648 38.466451 38.303415 38.143274 37.986282 37.832163 37.681128 37.532893 37.387629 37.245047 37.105275 36.968023 36.833380 36.701056 36.571101 36.443229 36.317451 36.193490 36.071319 35.950670 35.831485 35.713506 35.596642 35.480653 35.365414 35.250706 35.136375 35.022222
35.400000 35.536491 35.673178 35.810284 35.947973 36.086493 36.225977 36.366692 36.508737 36.652396 36.797730 36.945039 37.094344 37.245954 37.399849 37.556347 37.715385 37.877282 38.041932 38.209655 38.380298 38.554179 38.731099 38.911367 39.094738 39.281513 39.471399 39.664683 39.861026 40.060701 40.263322 40.469144 40.677736 40.889334 41.103465 41.320342 41.539452 41.760988 41.984398 42.209851 42.436765 42.665285 42.894798 43.125430 43.356544 43.588245 43.819877 44.051528 44.282529 44.512954 44.742126 44.970107 45.196222 45.420521 45.642339 45.861720 46.078010 46.291252 46.500813 46.706734 46.908410 47.105883 47.298578 47.486544 47.669241 47.846721 48.018484 48.184589 48.344577 48.498511 48.645975 48.787038 48.921328 49.048917 49.169474 49.283074 49.389430 49.488614 49.580382 49.664801 49.741668 49.811045 49.872767 49.926887 49.973278 50.011983 50.042912 50.066093 50.081473 50.089067 50.088857 50.080843 50.065042 50.041439 50.010088 49.970959 49.924141 49.869593 49.807441 49.737632 49.660331 49.575474 49.483267 49.383642 49.276842 49.162796 49.041791 48.913754 48.779015 48.637502 48.489589 48.335207 48.174775 48.008228 47.836028 47.658117 47.474997 47.286616 47.093517 46.895652 46.693600 46.487318 46.277417 46.063855 45.847269 45.627620 45.405564 45.181058 44.954775 44.726664 44.497405 44.266940 44.035950 43.804364 43.572856 43.341342 43.110484 42.880177 42.651068 42.423031 42.196689 41.971896 41.749245 41.528567 41.310424 41.094623 40.881688 40.671406 40.464260 40.260015 40.059113 39.861297 39.666967 39.475846 39.288288 39.104002 38.923294 38.745861 38.571961 38.401280 38.234030 38.069890 37.909026 37.751112 37.596268 37.444168 37.294887 37.148100 37.003842 36.861793 36.721944 36.583986 36.447871 36.313301 36.180192 36.048260 35.917385 35.787306 35.657866 35.528826 35.400000
35.777778 35.929959 36.082375 36.235227 36.388778 36.543196 36.698767 36.855624 37.014072 37.174204 37.336344 37.500541 37.667133 37.836124 38.007863 38.182306 38.359808 38.540276 38.724067 38.911039 39.101547 39.295398 39.492939 39.693926 39.898699 40.106960 40.319036 40.534577 40.753894 40.976585 41.202942 41.432513 41.665570 41.901610 42.140882 42.382837 42.627700 42.874878 43.124569 43.376142 43.629769 43.884785 44.141336 44.398727 44.657080 44.915675 45.174616 45.433163 45.691401 45.948580 46.204768 46.459215 46.711974 46.962299 47.210238 47.455054 47.696790 47.934730 48.168916 48.398657 48.623996 48.844276 49.059543 49.269180 49.473237 49.671138 49.862942 50.048119 50.226733 50.398301 50.562897 50.720083 50.869939 51.012077 51.146578 51.273104 51.391736 51.502182 51.604521 51.698508 51.784215 51.861441 51.930251 51.990487 52.042200 52.085274 52.119747 52.145544 52.162687 52.171139 52.170906 52.161990 52.144381 52.118119 52.083177 52.039634 51.987450 51.926741 51.857456 51.779751 51.693563 51.599093 51.496267 51.385332 51.266209 51.139190 51.004193 50.861558 50.711204 50.553520 50.388427 50.216363 50.037255 49.851590 49.659301 49.460923 49.256395 49.046300 48.830584 48.609871 48.384113 48.153974 47.919410 47.681116 47.439052 47.193939 46.945736 46.695183 46.442236 46.187647 45.931362 45.674141 45.415915 45.157443 44.898641 44.640255 44.382185 44.125160 43.869058 43.614583 43.361591 43.110756 42.861908 42.615689 42.371902 42.131148 41.893206 41.658634 41.427186 41.199374 40.974928 40.754312 40.537233 40.324106 40.114619 39.909134 39.707323 39.509498 39.315315 39.125034 38.938301 38.755325 38.575746 38.399720 38.226884 38.057345 37.890741 37.727129 37.566152 37.407821 37.251786 37.098013 36.946164 36.796163 36.647686 36.500617 36.354653 36.209638 36.065291 35.921423 35.777778
36.155556 36.323596 36.491879 36.660679 36.830202 37.000752 37.172495 37.345760 37.520672 37.697580 37.876563 38.057988 38.241885 38.428635 38.618217 38.811019 39.006970 39.206462 39.409368 39.616080 39.826416 40.040764 40.258886 40.481158 40.707287 40.937637 41.171856 41.410293 41.652538 41.898919 42.148971 42.403000 42.660483 42.921705 43.186088 43.453889 43.724482 43.998094 44.274054 44.552560 44.832898 45.115240 45.398834 45.683824 45.969429 46.255767 46.542035 46.828326 47.113822 47.398597 47.681825 47.963565 48.242992 48.520152 48.794229 49.065264 49.332457 49.595847 49.854659 50.108932 50.357926 50.601684 50.839503 51.071434 51.296818 51.515715 51.727516 51.932288 52.129473 52.319148 52.500809 52.674539 52.839888 52.996945 53.145314 53.285085 53.415916 53.537895 53.650732 53.754511 53.848990 53.934247 54.010087 54.076576 54.133565 54.181105 54.219093 54.247563 54.266453 54.275781 54.275527 54.265690 54.246290 54.217310 54.178811 54.130757 54.073253 54.006246 53.929885 53.844105 53.749098 53.644790 53.531420 53.408905 53.277536 53.137224 52.988313 52.830711 52.664816 52.490540 52.308334 52.118116 51.920390 51.715081 51.502749 51.283328 51.057428 50.824993 50.586683 50.342449 50.092997 49.838285 49.579058 49.315279 49.047728 48.776366 48.502000 48.224590 47.944960 47.663062 47.379731 47.094908 46.809429 46.523219 46.237108 45.951000 45.665711 45.381123 45.098026 44.816280 44.536645 44.258952 43.983926 43.711368 43.441964 43.175486 42.912573 42.652969 42.397262 42.145171 41.897231 41.653134 41.413362 41.177583 40.946224 40.718931 40.496074 40.277284 40.062872 39.852455 39.646288 39.443979 39.245724 39.051126 38.860328 38.672928 38.489016 38.308195 38.130499 37.955538 37.783297 37.613397 37.445775 37.280065 37.116158 36.953710 36.792567 36.632408 36.473039 36.314165 36.155556
36.533333 36.717400 36.901750 37.086632 37.272362 37.459148 37.647336 37.837086 38.028772 38.222507 38.418683 38.617364 38.818957 39.023472 39.231329 39.442481 39.657355 39.875845 40.098380 40.324796 40.555517 40.790319 41.029617 41.273126 41.521249 41.773637 42.030678 42.291960 42.557850 42.827874 43.102376 43.380819 43.663523 43.949889 44.240209 44.533829 44.831007 45.131037 45.434146 45.739579 46.047530 46.357202 46.668757 46.981361 47.295147 47.609249 47.923775 48.237838 48.551521 48.863923 49.175110 49.484175 49.791168 50.095190 50.396281 50.693556 50.987050 51.275901 51.560144 51.838951 52.112359 52.379582 52.640662 52.894860 53.142229 53.382080 53.614479 53.838790 54.055090 54.262804 54.462017 54.652213 54.833485 55.005378 55.167988 55.320918 55.464267 55.597695 55.721297 55.834789 55.938260 56.031476 56.114518 56.187201 56.249592 56.301555 56.343140 56.374256 56.394935 56.405132 56.404856 56.394108 56.372876 56.341206 56.299067 56.246546 56.183596 56.110350 56.026744 55.932959 55.828917 55.714850 55.590669 55.456660 55.312726 55.159208 54.996009 54.823525 54.641660 54.450870 54.251065 54.042760 53.825871 53.600977 53.368000 53.127579 52.879649 52.624903 52.363288 52.095548 51.821640 51.542357 51.257662 50.968389 50.674505 50.376876 50.075469 49.771177 49.463960 49.154727 48.843428 48.530977 48.217312 47.903342 47.588985 47.275139 46.961697 46.649537 46.338524 46.029508 45.722324 45.417784 45.115693 44.816822 44.520941 44.228773 43.940058 43.655464 43.374702 43.098383 42.826187 42.558667 42.295477 42.037109 41.783191 41.534153 41.289604 41.049911 40.814665 40.584171 40.358005 40.136412 39.918959 39.705830 39.496587 39.291354 39.089695 38.891673 38.696859 38.505260 38.316455 38.130397 37.946681 37.765208 37.585590 37.407681 37.231115 37.055702 36.881102 36.707081 36.533333
36.911111 37.111399 37.311978 37.513176 37.715241 37.918536 38.123263 38.329814 38.538340 38.749259 38.962668 39.179004 39.398309 39.621033 39.847161 40.077151 40.310926 40.548948 40.791078 41.037776 41.288837 41.544716 41.805139 42.070553 42.340614 42.615753 42.895560 43.180443 43.469925 43.764390 44.063293 44.366991 44.674872 44.987262 45.303486 45.623836 45.947579 46.274970 46.605219 46.938549 47.274116 47.612109 47.951640 48.292863 48.634853 48.977734 49.320552 49.663401 50.005309 50.346346 50.685530 51.022912 51.357511 51.689365 52.017503 52.341955 52.661772 52.976983 53.286669 53.590861 53.888681 54.180167 54.464491 54.741699 55.011017 55.272504 55.525448 55.769919 56.005267 56.231577 56.448262 56.655417 56.852523 57.039683 57.216439 57.382900 57.538672 57.683863 57.818139 57.941603 58.053980 58.155364 58.245534 58.324571 58.392307 58.448804 58.493946 58.527775 58.550222 58.561309 58.561012 58.549331 58.526290 58.491864 58.446125 58.389027 58.320690 58.241047 58.150268 58.048272 57.935280 57.811196 57.676297 57.530479 57.374077 57.206982 57.029590 56.841792 56.644047 56.436251 56.218927 55.991979 55.755997 55.510895 55.257328 54.995224 54.725302 54.447501 54.162600 53.870554 53.572195 53.267488 52.957315 52.641647 52.321409 51.996573 51.668097 51.335951 51.001113 50.663548 50.324245 49.983155 49.641270 49.298521 48.955891 48.613288 48.271675 47.930932 47.591995 47.254712 46.919983 46.587621 46.258484 45.932348 45.610020 45.291243 44.976767 44.666300 44.360533 44.059139 43.762747 43.470998 43.184456 42.902733 42.626326 42.354822 42.088651 41.827378 41.571364 41.320159 41.074056 40.832591 40.595992 40.363788 40.136141 39.912576 39.693192 39.477517 39.265588 39.056941 38.851553 38.648972 38.449118 38.251558 38.056157 37.862505 37.670415 37.479504 37.289538 37.100166 36.911111
37.288889 37.505588 37.722624 37.940290 38.158960 38.378881 38.600462 38.823896 39.049622 39.277778 39.508824 39.742843 39.980312 40.221249 40.466147 40.714959 40.968182 41.225704 41.488025 41.754960 42.027005 42.303907 42.586150 42.873407 43.166150 43.463977 43.767340 44.075763 44.389674 44.708524 45.032711 45.361613 45.695597 46.033971 46.377064 46.724120 47.075427 47.430166 47.788589 48.149815 48.514058 48.880386 49.248972 49.618841 49.990130 50.361826 50.734035 51.105715 51.476944 51.846665 52.214931 52.580680 52.943947 53.303677 53.659895 54.011562 54.358697 54.700293 55.036369 55.365956 55.689081 56.004825 56.313223 56.613415 56.905449 57.188528 57.462717 57.727284 57.982311 58.227136 58.461855 58.685878 58.899311 59.101636 59.292966 59.472852 59.641411 59.798260 59.943513 60.076851 60.198381 60.307844 60.405336 60.490653 60.563875 60.624853 60.673645 60.710154 60.734416 60.746382 60.746064 60.733463 60.708565 60.671419 60.621987 60.560368 60.486501 60.400537 60.302393 60.192275 60.070085 59.936085 59.790164 59.632644 59.463410 59.282846 59.090833 58.887825 58.673706 58.448997 58.213592 57.968083 57.712375 57.447132 57.172274 56.888535 56.595850 56.295023 55.986004 55.669660 55.345956 55.015817 54.679217 54.337132 53.989543 53.637467 53.280884 52.920842 52.557317 52.191374 51.822981 51.453207 51.082003 50.710435 50.338428 49.967036 49.596154 49.226808 48.858861 48.493305 48.129965 47.769789 47.412564 47.059186 46.709403 46.364053 46.022845 45.686554 45.354849 45.028441 44.706962 44.391053 44.080312 43.775309 43.475613 43.181720 42.893174 42.610396 42.332911 42.061066 41.794370 41.533098 41.276746 41.025519 40.778908 40.537048 40.299429 40.066119 39.836613 39.610913 39.388526 39.169391 38.953031 38.739325 38.527817 38.318330 38.110435 37.903903 37.698333 37.493450 37.288889
37.666667 37.899998 38.133670 38.368067 38.603483 38.840339 39.078877 39.319552 39.562547 39.808345 40.057070 40.309226 40.564871 40.824528 41.088186 41.356376 41.629019 41.906650 42.189115 42.476949 42.769922 43.068561 43.372558 43.682427 43.997782 44.319117 44.645967 44.978802 45.317077 45.661232 46.010644 46.365720 46.725759 47.091130 47.461059 47.835872 48.214726 48.597905 48.984497 49.374744 49.767675 50.163487 50.561157 50.960841 51.361469 51.763160 52.164811 52.566504 52.967113 53.366692 53.764102 54.159374 54.551370 54.940107 55.324458 55.704431 56.078927 56.447952 56.810444 57.166415 57.514853 57.855779 58.188240 58.512273 58.826988 59.132443 59.427820 59.713193 59.987821 60.251796 60.504455 60.745904 60.975558 61.193535 61.399324 61.593053 61.774282 61.943139 62.099256 62.242756 62.373335 62.491107 62.595831 62.687603 62.766240 62.831820 62.884214 62.923474 62.949526 62.962396 62.962058 62.948513 62.921785 62.881846 62.828773 62.762510 62.683187 62.590726 62.485310 62.366840 62.235559 62.091353 61.934526 61.764954 61.583006 61.388554 61.182039 60.963332 60.732948 60.490767 60.237377 59.972672 59.697318 59.411223 59.115132 58.808972 58.493563 58.168851 57.835729 57.494160 57.145105 56.788543 56.425493 56.055944 55.680966 55.300553 54.915815 54.526744 54.134476 53.738996 53.341453 52.941817 52.541239 52.139666 51.738237 51.336871 50.936685 50.537561 50.140585 49.745599 49.353644 48.964523 48.579223 48.197505 47.820295 47.447311 47.079414 46.716278 46.358695 46.006296 45.659800 45.318801 44.983940 44.654777 44.331876 44.014763 43.703927 43.398867 43.099993 42.806783 42.519569 42.237816 41.961776 41.690906 41.425382 41.164657 40.908836 40.657373 40.410300 40.167081 39.927680 39.691574 39.458663 39.228443 39.000751 38.775110 38.551299 38.328870 38.107548 37.886922 37.666667