<?xml version="1.0"?>
<VTKFile type="ImageData" version="0.1" byte_order="LittleEndian">
  <ImageData WholeExtent="0 180 0 180 0 0" Origin="0.0 0.0 0.0" Spacing="0.05 0.05 1">
    <Piece Extent="0 180 0 180 0 0">
      <PointData Scalars="Temperature">
        <DataArray type="Float32" Name="Temperature" format="ascii">
32.000000 32.000000 32.000000 32.000000 32.000000 32.000000 32.000000 32.000000 32.000000 32.000000 32.000000 32.000000 32.000000 32.000000 32.000000 32.000000 32.000000 32.000000 32.000000 32.000000 32.000000 32.000000 32.000000 32.000000 32.000000 32.000000 32.000000 32.000000 32.000000 32.000000 32.000000 32.000000 32.000000 32.000000 32.000000 32.000000 32.000000 32.000000 32.000000 32.000000 32.000000 32.000000 32.000000 32.000000 32.000000 32.000000 32.000000 32.000000 32.000000 32.000000 32.000000 32.000000 32.000000 32.000000 32.000000 32.000000 32.000000 32.000000 32.000000 32.000000 32.000000 32.000000 32.000000 32.000000 32.000000 32.000000 32.000000 32.000000 32.000000 32.000000 32.000000 32.000000 32.000000 32.000000 32.000000 32.000000 32.000000 32.000000 32.000000 32.000000 32.000000 32.000000 32.000000 32.000000 32.000000 32.000000 32.000000 32.000000 32.000000 32.000000 32.000000 32.000000 32.000000 32.000000 32.000000 32.000000 32.000000 32.000000 32.000000 32.000000 32.000000 32.000000 32.000000 32.000000 32.000000 32.000000 32.000000 32.000000 32.000000 32.000000 32.000000 32.000000 32.000000 32.000000 32.000000 32.000000 32.000000 32.000000 32.000000 32.000000 32.000000 32.000000 32.000000 32.000000 32.000000 32.000000 32.000000 32.000000 32.000000 32.000000 32.000000 32.000000 32.000000 32.000000 32.000000 32.000000 32.000000 32.000000 32.000000 32.000000 32.000000 32.000000 32.000000 32.000000 32.000000 32.000000 32.000000 32.000000 32.000000 32.000000 32.000000 32.000000 32.000000 32.000000 32.000000 32.000000 32.000000 32.000000 32.000000 32.000000 32.000000 32.000000 32.000000 32.000000 32.000000 32.000000 32.000000 32.000000 32.000000 32.000000 32.000000 32.000000 32.000000 32.000000 32.000000 32.000000 32.000000 32.000000 32.000000 32.000000 32.000000
32.377778 32.386023 32.394296 32.402626 32.411037 32.419563 32.428223 32.437053 32.446067 32.455306 32.464777 32.474523 32.484545 32.494891 32.505553 32.516581 32.527962 32.539747 32.551916 32.564521 32.577535 32.591012 32.604917 32.619303 32.634130 32.649451 32.665218 32.681482 32.698191 32.715395 32.733033 32.751154 32.769692 32.788695 32.808089 32.827920 32.848110 32.868702 32.889613 32.910883 32.932425 32.954277 32.976348 32.998673 33.021158 33.043837 33.066611 33.089514 33.112444 33.135434 33.158382 33.181316 33.204137 33.226872 33.249421 33.271810 33.293942 33.315841 33.337413 33.358681 33.379555 33.400058 33.420102 33.439711 33.458802 33.477399 33.495422 33.512896 33.529747 33.545999 33.561585 33.576527 33.590764 33.604318 33.617135 33.629234 33.640569 33.651156 33.660957 33.669986 33.678210 33.685643 33.692256 33.698061 33.703038 33.707194 33.710514 33.713005 33.714657 33.715473 33.715451 33.714589 33.712891 33.710355 33.706988 33.702785 33.697762 33.691908 33.685246 33.677764 33.669490 33.660409 33.650555 33.639914 33.628524 33.616368 33.603493 33.589880 33.575582 33.560578 33.544928 33.528611 33.511693 33.494151 33.476058 33.457391 33.438228 33.418545 33.398426 33.377848 33.356898 33.335552 33.313903 33.291926 33.269716 33.247249 33.224623 33.201811 33.178913 33.155904 33.132882 33.109821 33.086821 33.063852 33.041014 33.018275 32.995734 32.973357 32.951239 32.929346 32.907769 32.886470 32.865538 32.844932 32.824737 32.804910 32.785530 32.766552 32.748050 32.729976 32.712398 32.695268 32.678647 32.662485 32.646837 32.631651 32.616976 32.602760 32.589044 32.575776 32.562990 32.550634 32.538737 32.527246 32.516182 32.505494 32.495198 32.485242 32.475636 32.466332 32.457330 32.448587 32.440097 32.431816 32.423737 32.415817 32.408043 32.400376 32.392798 32.385273 32.377778
32.755556 32.772067 32.788637 32.805314 32.822166 32.839231 32.856584 32.874254 32.892322 32.910805 32.929791 32.949285 32.969380 32.990069 33.011450 33.033502 33.056325 33.079889 33.104294 33.129495 33.155596 33.182539 33.210427 33.239187 33.268925 33.299553 33.331175 33.363691 33.397203 33.431596 33.466970 33.503198 33.540377 33.578368 33.617263 33.656911 33.697402 33.738572 33.780506 33.823034 33.866234 33.909926 33.954185 33.998823 34.043912 34.089258 34.134926 34.180719 34.226700 34.272668 34.318681 34.364539 34.410297 34.455756 34.500967 34.545733 34.590106 34.633892 34.677141 34.719666 34.761514 34.802506 34.842690 34.881894 34.920165 34.957343 34.993473 35.028405 35.062184 35.094672 35.125914 35.155782 35.184319 35.211411 35.237100 35.261284 35.284001 35.305163 35.324805 35.342852 35.359333 35.374188 35.387441 35.399044 35.409017 35.417323 35.423977 35.428955 35.432266 35.433897 35.433852 35.432130 35.428728 35.423658 35.416912 35.408513 35.398445 35.386747 35.373396 35.358442 35.341859 35.323709 35.303962 35.282692 35.259864 35.235567 35.209763 35.182551 35.153893 35.123900 35.092532 35.059913 35.026000 34.990932 34.954663 34.917344 34.878928 34.839577 34.799244 34.758101 34.716100 34.673422 34.630018 34.586076 34.541547 34.496624 34.451258 34.405645 34.359735 34.313727 34.267566 34.221455 34.175335 34.129409 34.083613 34.038147 33.992946 33.948204 33.903851 33.860077 33.816807 33.774223 33.732245 33.691049 33.650548 33.610909 33.572042 33.534100 33.496992 33.460860 33.425606 33.391361 33.358025 33.325715 33.294330 33.263972 33.234538 33.206119 33.178608 33.152084 33.126439 33.101738 33.077876 33.054902 33.032712 33.011342 32.990692 32.970785 32.951522 32.932913 32.914865 32.897375 32.880353 32.863788 32.847593 32.831745 32.816165 32.800818 32.785634 32.770568 32.755556
33.133333 33.158157 33.183061 33.208140 33.233461 33.259130 33.285198 33.311781 33.338916 33.366728 33.395235 33.424573 33.454741 33.485880 33.517973 33.551166 33.585422 33.620891 33.657517 33.695454 33.734623 33.775182 33.817031 33.860327 33.904950 33.951058 33.998509 34.047457 34.097743 34.149517 34.202599 34.257136 34.312927 34.370116 34.428483 34.488166 34.548928 34.610901 34.673833 34.737846 34.802678 34.868444 34.934866 35.002055 35.069724 35.137975 35.206514 35.275437 35.344445 35.413628 35.482685 35.551701 35.620373 35.688785 35.756635 35.824002 35.890592 35.956481 36.021382 36.085369 36.148165 36.209843 36.270138 36.329122 36.386545 36.442476 36.496682 36.549232 36.599908 36.648778 36.695644 36.740569 36.783375 36.824124 36.862655 36.899027 36.933098 36.964924 36.994381 37.021519 37.046236 37.068574 37.088448 37.105895 37.120850 37.133339 37.143317 37.150802 37.155767 37.158220 37.158152 37.155563 37.150462 37.142840 37.132723 37.120094 37.104998 37.087407 37.067386 37.044900 37.020032 36.992739 36.963123 36.931136 36.896899 36.860358 36.821653 36.780726 36.737738 36.692626 36.645569 36.596504 36.545627 36.492873 36.438459 36.382315 36.324676 36.265472 36.204953 36.143049 36.080024 36.015806 35.950673 35.884550 35.817725 35.750124 35.682041 35.613399 35.544497 35.475257 35.405980 35.336581 35.267365 35.198242 35.129512 35.061081 34.993244 34.925900 34.859337 34.793448 34.728512 34.664412 34.601417 34.539404 34.478628 34.418958 34.360633 34.303519 34.247835 34.193442 34.140542 34.088989 34.038969 33.990328 33.943234 33.897532 33.853367 33.810582 33.769302 33.729369 33.690888 33.653701 33.617892 33.583305 33.550003 33.517833 33.486840 33.456872 33.427956 33.399946 33.372849 33.346526 33.320966 33.296037 33.271712 33.247868 33.224461 33.201377 33.178558 33.155901 33.133333
33.511111 33.544308 33.577622 33.611152 33.645032 33.679340 33.714227 33.749749 33.786070 33.823225 33.861389 33.900575 33.940966 33.982552 34.025524 34.069846 34.115717 34.163073 34.212120 34.262767 34.315221 34.369364 34.425407 34.483203 34.542962 34.604510 34.668054 34.733395 34.800736 34.869849 34.940932 35.013734 35.088445 35.164789 35.242948 35.322623 35.403989 35.486722 35.570991 35.656452 35.743264 35.831065 35.920004 36.009707 36.100312 36.191434 36.283202 36.375220 36.467613 36.559978 36.652432 36.744572 36.836508 36.927838 37.018667 37.108600 37.197737 37.285692 37.372562 37.457972 37.542019 37.624341 37.705034 37.783755 37.860596 37.935237 38.007768 38.077889 38.145691 38.210896 38.273593 38.333530 38.390791 38.445151 38.496688 38.545205 38.590774 38.633222 38.672617 38.708811 38.741864 38.771653 38.798230 38.821495 38.841492 38.858146 38.871488 38.881468 38.888106 38.891377 38.891287 38.887835 38.881015 38.870852 38.857326 38.840485 38.820300 38.796843 38.770072 38.740085 38.706830 38.670430 38.630824 38.588160 38.542371 38.493629 38.441859 38.387263 38.329759 38.269573 38.206622 38.141156 38.073088 38.002694 37.929885 37.854961 37.777831 37.698817 37.617827 37.535203 37.450851 37.365133 37.277953 37.189686 37.100237 37.009992 36.918852 36.827214 36.734974 36.642535 36.549787 36.457135 36.364465 36.272180 36.180158 36.088797 35.997966 35.908058 35.818932 35.730967 35.644015 35.558441 35.474088 35.391302 35.309917 35.230261 35.152158 35.075915 35.001347 34.928739 34.857897 34.789082 34.722095 34.657168 34.594099 34.533094 34.473946 34.416834 34.361550 34.308244 34.256708 34.207065 34.159107 34.112932 34.068333 34.025381 33.983874 33.943858 33.905135 33.867726 33.831442 33.796279 33.762057 33.728750 33.696187 33.664320 33.632991 33.602131 33.571598 33.541300 33.511111
33.888889 33.930550 33.972347 34.014437 34.056932 34.100009 34.143754 34.188364 34.233897 34.280565 34.328398 34.377621 34.428236 34.480479 34.534319 34.590003 34.647467 34.706966 34.768403 34.832036 34.897737 34.965765 35.035957 35.108574 35.183418 35.260749 35.340335 35.422430 35.506770 35.593604 35.682633 35.774100 35.867674 35.963590 36.061486 36.161586 36.263500 36.367441 36.472994 36.580360 36.689100 36.799403 36.910811 37.023501 37.136996 37.251464 37.366416 37.482007 37.597740 37.713762 37.829569 37.945301 38.060455 38.175163 38.288926 38.401871 38.513508 38.623959 38.732748 38.839995 38.945239 39.048598 39.149633 39.248459 39.344663 39.438356 39.529152 39.617162 39.702027 39.783858 39.862324 39.937534 40.009189 40.077391 40.141877 40.202742 40.259753 40.313000 40.362281 40.407679 40.449023 40.486384 40.519624 40.548802 40.573811 40.594696 40.611381 40.623897 40.632198 40.636300 40.636187 40.631860 40.623331 40.610587 40.593672 40.572555 40.547310 40.517894 40.484410 40.446802 40.405206 40.359552 40.310007 40.256491 40.199204 40.138058 40.073283 40.004784 39.932826 39.857306 39.778521 39.696365 39.611167 39.522817 39.431674 39.337627 39.241063 39.141870 39.040464 38.936728 38.831102 38.723471 38.614294 38.503453 38.391427 38.278092 38.163941 38.048848 37.933314 37.817207 37.701033 37.584654 37.468575 37.352651 37.237382 37.122613 37.008839 36.895891 36.784252 36.673743 36.564830 36.457322 36.351665 36.247658 36.145722 36.045645 35.947823 35.852033 35.758641 35.667415 35.578692 35.492230 35.408335 35.326757 35.247771 35.171119 35.097042 35.025281 34.956041 34.889061 34.824514 34.762135 34.702066 34.644044 34.588177 34.534206 34.482206 34.431924 34.383404 34.336402 34.290929 34.246753 34.203855 34.162015 34.121185 34.081162 34.041868 34.003118 33.964810 33.926776 33.888889
34.266667 34.316894 34.367298 34.418028 34.469286 34.521191 34.573969 34.627707 34.682650 34.738853 34.796578 34.855846 34.916935 34.979826 35.044812 35.111836 35.181199 35.252806 35.326965 35.403542 35.482848 35.564709 35.649437 35.736816 35.827159 35.920209 36.016274 36.115057 36.216860 36.321345 36.428807 36.538870 36.651817 36.767235 36.885398 37.005854 37.128865 37.253947 37.381349 37.510556 37.641802 37.774546 37.909009 38.044627 38.181605 38.319364 38.458095 38.597204 38.736872 38.876496 39.016245 39.155516 39.294467 39.432497 39.569760 39.705660 39.840344 39.973233 40.104468 40.233488 40.360432 40.484762 40.606613 40.725475 40.841483 40.954157 41.063629 41.169453 41.271760 41.370138 41.464717 41.555123 41.641479 41.723450 41.801155 41.874296 41.942985 42.006963 42.066332 42.120873 42.170674 42.215555 42.255591 42.290639 42.320759 42.345843 42.365938 42.380970 42.390968 42.395894 42.395759 42.390562 42.380293 42.364987 42.344618 42.319254 42.288852 42.253519 42.213191 42.168015 42.117911 42.063063 42.003378 41.939077 41.870058 41.796579 41.718528 41.636202 41.549482 41.458705 41.363744 41.264975 41.162269 41.056038 40.946149 40.833052 40.716611 40.597310 40.475012 40.350231 40.222830 40.093349 39.961648 39.828293 39.693141 39.556774 39.419046 39.280554 39.141146 39.001427 38.861237 38.721185 38.581102 38.441594 38.302483 38.164365 38.027051 37.891125 37.756384 37.623396 37.491941 37.362567 37.235040 37.109882 36.986844 36.866419 36.748345 36.633080 36.520352 36.410583 36.303488 36.199454 36.098185 36.000029 35.904682 35.812454 35.723032 35.636687 35.553102 35.472507 35.394585 35.319523 35.247005 35.177180 35.109735 35.044777 34.982001 34.921475 34.862901 34.806312 34.751421 34.698222 34.646443 34.596044 34.546769 34.498544 34.451132 34.404428 34.358215 34.312359 34.266667
34.644444 34.703373 34.762492 34.822025 34.882129 34.943054 35.004922 35.068009 35.132399 35.198389 35.266024 35.335621 35.407181 35.481037 35.557148 35.635861 35.717088 35.801184 35.888019 35.977953 36.070807 36.166946 36.266143 36.368763 36.474531 36.583809 36.696275 36.812285 36.931469 37.054175 37.179987 37.309242 37.441479 37.577022 37.715368 37.856828 38.000855 38.147746 38.296918 38.448650 38.602328 38.758212 38.915658 39.074912 39.235306 39.397069 39.559513 39.722854 39.886393 40.050329 40.213957 40.377467 40.540152 40.702192 40.862888 41.022411 41.180075 41.336045 41.489654 41.641064 41.789632 41.935516 42.078104 42.217551 42.353280 42.485445 42.613505 42.737614 42.857272 42.972629 43.083229 43.189218 43.290184 43.386269 43.477104 43.562824 43.643107 43.718077 43.787457 43.851359 43.909550 43.962128 44.008903 44.049957 44.085144 44.114527 44.138000 44.155607 44.167285 44.173056 44.172899 44.166813 44.154819 44.136894 44.113100 44.083393 44.047878 44.006491 43.959377 43.906454 43.847912 43.783651 43.713904 43.638558 43.557891 43.471777 43.380538 43.284040 43.182650 43.076227 42.965183 42.849371 42.729248 42.604664 42.476119 42.343459 42.207227 42.067267 41.924160 41.777748 41.628648 41.476700 41.322549 41.166034 41.007825 40.847757 40.686519 40.523941 40.360724 40.196690 40.032550 39.868114 39.704093 39.540286 39.377399 39.215218 39.054434 38.894821 38.737052 38.580883 38.426965 38.275037 38.125723 37.978743 37.834689 37.693265 37.555027 37.419662 37.287686 37.158774 37.033397 36.911217 36.792663 36.677384 36.565764 36.457444 36.352760 36.251347 36.153494 36.058832 35.967604 35.879439 35.794532 35.712516 35.633539 35.557240 35.483720 35.412626 35.344017 35.277550 35.213239 35.150758 35.090078 35.030892 34.973130 34.916505 34.860910 34.806082 34.751876 34.698056 34.644444
35.022222 35.089991 35.157998 35.226444 35.295599 35.365625 35.436824 35.509315 35.583426 35.659234 35.737089 35.817020 35.899400 35.984207 36.071830 36.162199 36.255713 36.352251 36.452223 36.555452 36.662353 36.772697 36.886900 37.004678 37.126445 37.251862 37.381340 37.514483 37.651694 37.792524 37.937364 38.085714 38.237950 38.393522 38.552791 38.715159 38.880968 39.049575 39.221306 39.395475 39.572390 39.751330 39.932580 40.115390 40.300028 40.485718 40.672709 40.860209 41.048448 41.236624 41.424954 41.612631 41.799859 41.985836 42.170755 42.353825 42.535233 42.714205 42.890923 43.064638 43.235529 43.402878 43.566862 43.726799 43.882866 44.034422 44.181642 44.323933 44.461465 44.593694 44.720790 44.842255 44.958257 45.068349 45.172690 45.270888 45.363091 45.448958 45.528626 45.601804 45.668613 45.728814 45.782511 45.829512 45.869901 45.903537 45.930479 45.950634 45.964038 45.970644 45.970465 45.963500 45.949736 45.929218 45.901911 45.867906 45.827142 45.779761 45.725679 45.665084 45.597874 45.524287 45.444201 45.357905 45.265264 45.166617 45.061815 44.951251 44.834766 44.712805 44.585203 44.452455 44.314391 44.171559 44.023784 43.871663 43.715022 43.554499 43.389922 43.221971 43.050471 42.876142 42.698805 42.519212 42.337181 42.153489 41.967950 41.781360 41.593524 41.405250 41.216334 41.027588 40.838796 40.650768 40.463270 40.277104 40.092021 39.908803 39.727184 39.547922 39.370732 39.196343 39.024450 38.855745 38.689906 38.527585 38.368438 38.213077 38.061139 37.913187 37.768845 37.628624 37.492134 37.359836 37.231326 37.107014 36.986487 36.870100 36.757435 36.648792 36.543751 36.442557 36.344792 36.250648 36.159709 36.072115 35.987458 35.905827 35.826825 35.750490 35.676441 35.604666 35.534803 35.466794 35.400298 35.335212 35.271221 35.208180 35.145802 35.083901 35.022222
35.400000 35.476787 35.553822 35.631394 35.709708 35.789087 35.869693 35.951880 36.035760 36.121717 36.209812 36.300453 36.393646 36.489821 36.588929 36.691414 36.797169 36.906651 37.019695 37.136766 37.257636 37.382775 37.511894 37.645462 37.783130 37.925361 38.071744 38.222735 38.377863 38.537572 38.701329 38.869565 39.041690 39.218117 39.398201 39.582334 39.769819 39.961028 40.155216 40.352732 40.552788 40.755711 40.960673 41.167981 41.376776 41.587342 41.798797 42.011404 42.224264 42.437624 42.650577 42.863353 43.075044 43.285870 43.494930 43.702435 43.907501 44.110330 44.310066 44.506904 44.700021 44.889610 45.074885 45.256041 45.432335 45.603959 45.770223 45.931318 46.086605 46.236274 46.379742 46.517196 46.648110 46.772664 46.890392 47.001466 47.105475 47.202581 47.292431 47.375172 47.450507 47.518564 47.579104 47.632232 47.677764 47.715780 47.746150 47.768929 47.784038 47.791505 47.791304 47.783434 47.767921 47.744736 47.713956 47.675526 47.629575 47.576021 47.515048 47.446549 47.370764 47.287564 47.197244 47.099658 46.995156 46.883578 46.765334 46.640249 46.508792 46.370782 46.226745 46.076492 45.920609 45.758905 45.592018 45.419759 45.242819 45.061006 44.875063 44.684798 44.490997 44.293468 44.093037 43.889509 43.683743 43.475539 43.265783 43.054266 42.841893 42.628445 42.414836 42.200834 41.987355 41.774152 41.562131 41.351029 41.141736 40.933969 40.728595 40.525310 40.324949 40.127186 39.932820 39.741502 39.553989 39.369908 39.189970 39.013780 38.841999 38.674212 38.511023 38.352002 38.197694 38.047655 37.902372 37.761387 37.625128 37.493127 37.365752 37.242531 37.123769 37.008993 36.898449 36.791665 36.688826 36.589470 36.493721 36.401127 36.311756 36.225171 36.141383 36.059973 35.980900 35.903768 35.828484 35.754677 35.682206 35.610730 35.540063 35.469896 35.400000
35.777778 35.863759 35.950040 36.036876 36.124608 36.213442 36.303758 36.395708 36.489705 36.585848 36.684577 36.785934 36.890384 36.997907 37.108989 37.223546 37.342080 37.464443 37.591148 37.721978 37.857453 37.997290 38.142010 38.291261 38.445561 38.604490 38.768557 38.937276 39.111144 39.289607 39.473148 39.661146 39.854067 40.051226 40.253068 40.458847 40.668986 40.882683 41.100335 41.321089 41.545317 41.772120 42.001844 42.233552 42.467566 42.702916 42.939900 43.177527 43.416073 43.654531 43.893160 44.130950 44.368141 44.603729 44.837943 45.069790 45.299494 45.526084 45.749777 45.969635 46.185871 46.397590 46.605000 46.807254 47.004563 47.196129 47.382165 47.561932 47.735639 47.902611 48.063055 48.216359 48.362724 48.501604 48.633194 48.757010 48.873238 48.981458 49.081841 49.174032 49.258182 49.333998 49.401611 49.460786 49.511630 49.553969 49.587880 49.613247 49.630118 49.638434 49.638211 49.629450 49.612132 49.586314 49.551950 49.509152 49.457844 49.398196 49.330104 49.253799 49.169151 49.076451 48.975548 48.866794 48.750021 48.625646 48.493483 48.354016 48.207049 48.053129 47.892053 47.724434 47.550064 47.369621 47.182895 46.990624 46.792598 46.589615 46.381463 46.168994 45.951998 45.731374 45.506909 45.279544 45.049063 44.816439 44.581452 44.345099 44.107149 43.868615 43.629256 43.390088 43.150854 42.912568 42.674954 42.439012 42.204445 41.972231 41.742050 41.514848 41.290282 41.069259 40.851410 40.637599 40.427429 40.221715 40.020036 39.823150 39.630612 39.443123 39.260215 39.082527 38.909573 38.741925 38.579083 38.421553 38.268822 38.121329 37.978552 37.840863 37.707736 37.579475 37.455555 37.336212 37.220927 37.109870 37.002530 36.899012 36.798822 36.702000 36.608069 36.517011 36.428371 36.342072 36.257687 36.175082 36.093862 36.013841 35.934658 35.856078 35.777778
36.155556 36.250947 36.346646 36.443008 36.540289 36.638888 36.739004 36.841076 36.945245 37.051983 37.161368 37.273903 37.389600 37.508985 37.632004 37.759201 37.890453 38.026318 38.166600 38.311866 38.461846 38.617112 38.777317 38.943034 39.113841 39.290303 39.471922 39.659254 39.851726 40.049878 40.253065 40.461806 40.675386 40.894301 41.117768 41.346258 41.578923 41.816207 42.057201 42.302322 42.550607 42.802445 43.056823 43.314103 43.573234 43.834549 44.096967 44.360796 44.624934 44.889667 45.153883 45.417847 45.680447 45.941934 46.201206 46.458503 46.712743 46.964159 47.211701 47.455596 47.694836 47.929646 48.159066 48.383322 48.601510 48.813857 49.019521 49.218730 49.410709 49.595684 49.772950 49.942732 50.104396 50.258159 50.403459 50.540505 50.668807 50.788560 50.899343 51.001333 51.094180 51.178039 51.252624 51.318066 51.374145 51.420962 51.458360 51.486408 51.505014 51.514210 51.513966 51.504282 51.485187 51.456645 51.418750 51.371430 51.314842 51.248883 51.173772 51.089378 50.995985 50.893436 50.782082 50.661745 50.532845 50.395185 50.249256 50.094849 49.932525 49.762065 49.584105 49.398419 49.205714 49.005762 48.799340 48.586219 48.367243 48.142186 47.911952 47.676317 47.436243 47.191505 46.943115 46.690847 46.435753 46.177603 45.917482 45.655152 45.391721 45.126938 44.861922 44.596408 44.331516 44.066961 43.803854 43.541888 43.282153 43.024317 42.769441 42.517166 42.268514 42.023098 41.781894 41.544485 41.311794 41.083377 40.860098 40.641485 40.428338 40.220158 40.017681 39.820384 39.628931 39.442782 39.262526 39.087608 38.918544 38.754767 38.596718 38.443822 38.296447 38.154016 38.016821 37.884289 37.756638 37.633302 37.514429 37.399463 37.288484 37.180954 37.076884 36.975758 36.877521 36.781686 36.688135 36.596413 36.506342 36.417503 36.329662 36.242442 36.155556
36.533333 36.638345 36.743722 36.849774 36.956914 37.065396 37.175678 37.287950 37.402709 37.520081 37.640597 37.764313 37.891789 38.023008 38.158554 38.298336 38.442955 38.592241 38.746808 38.906408 39.071660 39.242235 39.418753 39.600803 39.789002 39.982853 40.182966 40.388762 40.600835 40.818524 41.042406 41.271739 41.507077 41.747601 41.993838 42.244897 42.501274 42.762009 43.027569 43.296930 43.570526 43.847278 44.127587 44.410327 44.695868 44.983043 45.272194 45.562127 45.853155 46.144067 46.435154 46.725197 47.014469 47.301759 47.587322 47.869965 48.149935 48.426067 48.698602 48.966415 49.229745 49.487516 49.739968 49.986084 50.226105 50.459081 50.685253 50.903744 51.114797 51.317608 51.512422 51.698513 51.876120 52.044597 52.204176 52.354288 52.495155 52.626286 52.747884 52.859535 52.961421 53.053200 53.135030 53.206640 53.268155 53.319377 53.360397 53.391082 53.411488 53.421550 53.421285 53.410693 53.389755 53.358534 53.316974 53.265207 53.203138 53.130967 53.048566 52.956204 52.853724 52.741467 52.619248 52.487482 52.345964 52.195184 52.034921 51.865744 51.687417 51.500590 51.305021 51.101436 50.889591 50.670292 50.443293 50.209475 49.968595 49.721606 49.468267 49.209597 48.945358 48.676627 48.403168 48.126107 47.845207 47.561635 47.275146 46.986940 46.696761 46.405826 46.113866 45.822105 45.530255 45.239534 44.949632 44.661750 44.375551 44.092210 43.811359 43.534135 43.260140 42.990464 42.724677 42.463813 42.207410 41.956441 41.710411 41.470228 41.235365 41.006658 40.783554 40.566812 40.355856 40.151366 39.952747 39.760598 39.574308 39.394395 39.220238 39.052273 38.889872 38.733392 38.582204 38.436583 38.295906 38.160370 38.029362 37.903001 37.780690 37.662473 37.547776 37.436570 37.328305 37.222886 37.119794 37.018866 36.919621 36.821834 36.725065 36.629029 36.533333
36.911111 37.025996 37.141250 37.257298 37.374449 37.493178 37.613729 37.736622 37.862033 37.990521 38.122189 38.257630 38.396869 38.540529 38.688554 38.841591 38.999499 39.162941 39.331692 39.506424 39.686826 39.873573 40.066265 40.265574 40.471013 40.683245 40.901691 41.127002 41.358511 41.596849 41.841260 42.092352 42.349285 42.612637 42.881487 43.156382 43.436321 43.721819 44.011803 44.306751 44.605527 44.908571 45.214690 45.524289 45.836127 46.150574 46.466354 46.783805 47.101623 47.420121 47.737982 48.055494 48.371341 48.685793 48.997545 49.306855 49.612445 49.914565 50.211974 50.504918 50.792206 51.074085 51.349425 51.618475 51.880171 52.134769 52.381281 52.619965 52.849913 53.071388 53.283564 53.486704 53.680068 53.863912 54.037586 54.201334 54.354590 54.497586 54.629836 54.751554 54.862334 54.962363 55.051314 55.129344 55.196202 55.252007 55.296583 55.330011 55.352186 55.363149 55.362863 55.351329 55.328581 55.294575 55.249417 55.193023 55.125569 55.046933 54.957365 54.856709 54.745288 54.622916 54.489995 54.346314 54.192355 54.027886 53.853474 53.668872 53.474731 53.270795 53.057803 52.835492 52.604688 52.365130 52.117725 51.862215 51.599590 51.329596 51.053297 50.770445 50.482173 50.188235 49.889827 49.586702 49.280106 48.969789 48.657037 48.341591 48.024765 47.706287 47.387484 47.068066 46.749361 46.431057 46.114468 45.799256 45.486710 45.176460 44.869760 44.566206 44.267005 43.971718 43.681496 43.395861 43.115903 42.841109 42.572496 42.309516 42.053111 41.802702 41.559149 41.321843 41.091562 40.867673 40.650865 40.440485 40.237137 40.040152 39.850044 39.666135 39.488852 39.317512 39.152454 38.992998 38.839396 38.690977 38.547907 38.409531 38.275931 38.146471 38.021155 37.899373 37.781052 37.665612 37.552907 37.442396 37.333862 37.226806 37.120945 37.015828 36.911111
37.288889 37.413887 37.539317 37.665547 37.793066 37.922176 38.053417 38.187017 38.323564 38.463209 38.606578 38.753743 38.905363 39.061425 39.222616 39.388835 39.560787 39.738284 39.922043 40.111783 40.308229 40.511003 40.720831 40.937241 41.160951 41.391393 41.629271 41.873921 42.126030 42.384836 42.651004 42.923677 43.203491 43.489499 43.782303 44.080869 44.385762 44.695867 45.011711 45.332104 45.657531 45.986736 46.320164 46.656502 46.996156 47.337766 47.681702 48.026569 48.372703 48.718690 49.064837 49.409722 49.753630 50.095145 50.434536 50.770409 51.103020 51.431012 51.754636 52.072582 52.385102 52.690946 52.990370 53.282194 53.566679 53.842726 54.110601 54.369290 54.619068 54.859007 55.089386 55.309371 55.519238 55.718247 55.906669 56.083855 56.250063 56.404736 56.548114 56.679727 56.799792 56.907922 57.004304 57.088634 57.161062 57.221362 57.269645 57.305762 57.329781 57.341627 57.341321 57.328863 57.304230 57.267495 57.218588 57.157657 57.084590 56.999611 56.902569 56.793765 56.673014 56.540698 56.396602 56.241193 56.074231 55.896272 55.707058 55.507235 55.296534 55.075693 54.844438 54.603600 54.352904 54.093275 53.824439 53.547413 53.261929 52.969090 52.668634 52.361744 52.048166 51.729152 51.404451 51.075380 50.741684 50.404731 50.064263 49.721681 49.376718 49.030797 48.683634 48.336661 47.989572 47.643791 47.298984 46.956556 46.616140 46.279107 45.945054 45.615308 45.289425 44.968676 44.652578 44.342336 44.037426 43.738980 43.446435 43.160843 42.881602 42.609680 42.344443 42.086767 41.835987 41.592890 41.356785 41.128363 40.906915 40.693036 40.486002 40.286315 40.093243 39.907190 39.727425 39.554259 39.386964 39.225760 39.069930 38.919604 38.774083 38.633411 38.496912 38.364546 38.235668 38.110157 37.987405 37.867214 37.749018 37.632546 37.517281 37.402883 37.288889
37.666667 37.802063 37.937893 38.074653 38.212708 38.352612 38.494656 38.639445 38.787190 38.938543 39.093630 39.253142 39.417117 39.586276 39.760568 39.940739 40.126639 40.319034 40.517676 40.723341 40.935682 41.155476 41.382274 41.616850 41.858651 42.108441 42.365562 42.630761 42.903277 43.183832 43.471564 43.767164 44.069671 44.379742 44.696320 45.020022 45.349700 45.685929 46.027476 46.374873 46.726809 47.083770 47.444380 47.809079 48.176434 48.546844 48.918830 49.292755 49.667108 50.042217 50.416557 50.790427 51.162302 51.532459 51.899389 52.263356 52.622879 52.978216 53.327933 53.672285 54.009898 54.341030 54.664381 54.980215 55.287313 55.585950 55.874997 56.154736 56.424135 56.683484 56.931848 57.169521 57.395670 57.610586 57.813536 58.004803 58.183751 58.350651 58.504960 58.646926 58.776099 58.892699 58.996363 59.087275 59.165157 59.230151 59.282063 59.320988 59.346810 59.359578 59.359253 59.345833 59.319356 59.279772 59.227197 59.161530 59.082967 58.991364 58.886996 58.769679 58.639772 58.497058 58.341982 58.174298 57.994545 57.802453 57.598657 57.382872 57.155833 56.917246 56.667945 56.407636 56.137255 55.856511 55.566438 55.266753 54.958587 54.641666 54.317212 53.984960 53.646216 53.300720 52.949853 52.593359 52.232677 51.867553 51.499472 51.128171 50.755169 50.380189 50.004765 49.628600 49.253228 48.878324 48.505410 48.134124 47.765959 47.400517 47.039246 46.681707 46.329291 45.981515 45.639706 45.303334 44.973651 44.650082 44.333796 44.024175 43.722299 43.427511 43.140795 42.861460 42.590390 42.326865 42.071669 41.824054 41.584705 41.352854 41.129083 40.912613 40.703923 40.502227 40.307905 40.120172 39.939307 39.764534 39.596036 39.433051 39.275666 39.123143 38.975478 38.831962 38.692500 38.556421 38.423546 38.293244 38.165259 38.039008 37.914156 37.790177 37.666667