# vtk DataFile Version 3.0
Steady-state temperature (Jacobi)
ASCII
DATASET STRUCTURED_POINTS
DIMENSIONS 181 181 1
ORIGIN 0.0 0.0 0.0
SPACING 0.05 0.05 1.0
POINT_DATA 32761
SCALARS Temperature float 1
LOOKUP_TABLE default
32.000000 32.000000 32.000000 32.000000 32.000000 32.000000 32.000000 32.000000
32.000000 32.000000 32.000000 32.000000 32.000000 32.000000 32.000000 32.000000
32.000000 32.000000 32.000000 32.000000 32.000000 32.000000 32.000000 32.000000
32.000000 32.000000 32.000000 32.000000 32.000000 32.000000 32.000000 32.000000
32.000000 32.000000 32.000000 32.000000 32.000000 32.000000 32.000000 32.000000
32.000000 32.000000 32.000000 32.000000 32.000000 32.000000 32.000000 32.000000
32.000000 32.000000 32.000000 32.000000 32.000000 32.000000 32.000000 32.000000
32.000000 32.000000 32.000000 32.000000 32.000000 32.000000 32.000000 32.000000
32.000000 32.000000 32.000000 32.000000 32.000000 32.000000 32.000000 32.000000
32.000000 32.000000 32.000000 32.000000 32.000000 32.000000 32.000000 32.000000
32.000000 32.000000 32.000000 32.000000 32.000000 32.000000 32.000000 32.000000
32.000000 32.000000 32.000000 32.000000 32.000000 32.000000 32.000000 32.000000
32.000000 32.000000 32.000000 32.000000 32.000000 32.000000 32.000000 32.000000
32.000000 32.000000 32.000000 32.000000 32.000000 32.000000 32.000000 32.000000
32.000000 32.000000 32.000000 32.000000 32.000000 32.000000 32.000000 32.000000
32.000000 32.000000 32.000000 32.000000 32.000000 32.000000 32.000000 32.000000
32.000000 32.000000 32.000000 32.000000 32.000000 32.000000 32.000000 32.000000
32.000000 32.000000 32.000000 32.000000 32.000000 32.000000 32.000000 32.000000
32.000000 32.000000 32.000000 32.000000 32.000000 32.000000 32.000000 32.000000
32.000000 32.000000 32.000000 32.000000 32.000000 32.000000 32.000000 32.000000
32.000000 32.000000 32.000000 32.000000 32.000000 32.000000 32.000000 32.000000
32.000000 32.000000 32.000000 32.000000 32.000000 32.000000 32.000000 32.000000
32.000000 32.000000 32.000000 32.000000 32.000000
32.377778 32.355033 32.332417 32.310058 32.288078 32.266593 32.245711 32.225531
32.206141 32.187615 32.170015 32.153390 32.137775 32.123193 32.109652 32.097151
32.085674 32.075197 32.065689 32.057108 32.049409 32.042540 32.036447 32.031072
32.026359 32.022249 32.018686 32.015615 32.012983 32.010740 32.008840 32.007240
32.005901 32.004786 32.003864 32.003106 32.002487 32.001985 32.001580 32.001257
32.001000 32.000799 32.000643 32.000524 32.000433 32.000368 32.000320 32.000289
32.000269 32.000260 32.000258 32.000263 32.000271 32.000284 32.000299 32.000318
32.000336 32.000358 32.000378 32.000401 32.000422 32.000445 32.000466 32.000487
32.000507 32.000528 32.000546 32.000565 32.000581 32.000598 32.000612 32.000627
32.000639 32.000651 32.000661 32.000671 32.000679 32.000687 32.000694 32.000700
32.000705 32.000710 32.000713 32.000717 32.000719 32.000721 32.000723 32.000724
32.000725 32.000725 32.000725 32.000725 32.000724 32.000723 32.000721 32.000719
32.000717 32.000713 32.000710 32.000705 32.000700 32.000694 32.000687 32.000679
32.000671 32.000661 32.000651 32.000639 32.000627 32.000612 32.000598 32.000581
32.000565 32.000546 32.000528 32.000507 32.000487 32.000465 32.000444 32.000421
32.000400 32.000377 32.000356 32.000334 32.000314 32.000295 32.000278 32.000262
32.000251 32.000242 32.000240 32.000242 32.000253 32.000273 32.000306 32.000354
32.000421 32.000512 32.000633 32.000790 32.000992 32.001249 32.001574 32.001979
32.002482 32.003102 32.003860 32.004783 32.005898 32.007238 32.008838 32.010739
32.012982 32.015614 32.018685 32.022248 32.026358 32.031072 32.036446 32.042540
32.049409 32.057108 32.065689 32.075197 32.085674 32.097151 32.109652 32.123193
32.137775 32.153390 32.170015 32.187615 32.206141 32.225531 32.245711 32.266593
32.288078 32.310058 32.332417 32.355033 32.377778
32.755556 32.710066 32.664835 32.620116 32.576155 32.533185 32.491422 32.451063
32.412282 32.375229 32.340029 32.306779 32.275550 32.246386 32.219305 32.194301
32.171347 32.150395 32.131378 32.114217 32.098818 32.085080 32.072893 32.062145
32.052718 32.044499 32.037373 32.031230 32.025967 32.021481 32.017682 32.014482
32.011804 32.009574 32.007731 32.006215 32.004978 32.003974 32.003166 32.002520
32.002008 32.001606 32.001296 32.001057 32.000879 32.000748 32.000657 32.000594
32.000559 32.000541 32.000540 32.000549 32.000571 32.000597 32.000632 32.000669
32.000712 32.000754 32.000801 32.000846 32.000894 32.000939 32.000986 32.001029
32.001074 32.001115 32.001156 32.001193 32.001231 32.001263 32.001296 32.001324
32.001352 32.001376 32.001399 32.001418 32.001437 32.001453 32.001467 32.001480
32.001491 32.001500 32.001508 32.001515 32.001521 32.001525 32.001529 32.001531
32.001533 32.001534 32.001534 32.001533 32.001531 32.001529 32.001525 32.001521
32.001515 32.001508 32.001500 32.001491 32.001480 32.001467 32.001453 32.001437
32.001418 32.001399 32.001376 32.001352 32.001324 32.001296 32.001263 32.001231
32.001193 32.001156 32.001115 32.001074 32.001029 32.000985 32.000938 32.000893
32.000844 32.000798 32.000751 32.000707 32.000662 32.000623 32.000585 32.000554
32.000526 32.000509 32.000499 32.000504 32.000522 32.000562 32.000625 32.000720
32.000852 32.001034 32.001273 32.001587 32.001990 32.002504 32.003152 32.003962
32.004967 32.006206 32.007723 32.009568 32.011798 32.014477 32.017678 32.021478
32.025964 32.031228 32.037371 32.044497 32.052717 32.062144 32.072893 32.085080
32.098818 32.114217 32.131378 32.150395 32.171347 32.194301 32.219305 32.246386
32.275550 32.306779 32.340029 32.375229 32.412282 32.451063 32.491422 32.533185
32.576155 32.620116 32.664835 32.710066 32.755556
33.133333 33.065099 32.997252 32.930174 32.864233 32.799778 32.737133 32.676594
32.618423 32.562844 32.510044 32.460169 32.413326 32.369579 32.328958 32.291452
32.257021 32.225592 32.197068 32.171326 32.148228 32.127621 32.109341 32.093218
32.079078 32.066749 32.056061 32.046848 32.038952 32.032225 32.026526 32.021727
32.017710 32.014368 32.011603 32.009332 32.007476 32.005973 32.004762 32.003796
32.003030 32.002431 32.001966 32.001614 32.001349 32.001158 32.001023 32.000937
32.000886 32.000867 32.000868 32.000892 32.000926 32.000976 32.001031 32.001097
32.001164 32.001239 32.001311 32.001390 32.001464 32.001542 32.001615 32.001691
32.001760 32.001831 32.001895 32.001960 32.002017 32.002074 32.002124 32.002173
32.002216 32.002258 32.002293 32.002327 32.002356 32.002383 32.002406 32.002427
32.002444 32.002460 32.002473 32.002484 32.002493 32.002500 32.002506 32.002510
32.002513 32.002514 32.002514 32.002513 32.002510 32.002506 32.002500 32.002493
32.002484 32.002473 32.002460 32.002444 32.002427 32.002406 32.002383 32.002356
32.002327 32.002293 32.002258 32.002216 32.002173 32.002124 32.002074 32.002017
32.001959 32.001895 32.001831 32.001760 32.001690 32.001614 32.001541 32.001462
32.001387 32.001307 32.001233 32.001156 32.001087 32.001017 32.000957 32.000901
32.000857 32.000822 32.000805 32.000803 32.000829 32.000881 32.000974 32.001110
32.001307 32.001574 32.001932 32.002398 32.003002 32.003769 32.004740 32.005953
32.007460 32.009316 32.011590 32.014356 32.017701 32.021719 32.026519 32.032219
32.038947 32.046844 32.056057 32.066746 32.079076 32.093216 32.109339 32.127620
32.148227 32.171325 32.197067 32.225592 32.257021 32.291452 32.328957 32.369579
32.413326 32.460169 32.510044 32.562844 32.618423 32.676594 32.737133 32.799778
32.864233 32.930174 32.997252 33.065099 33.133333
33.511111 33.420132 33.329669 33.240232 33.152310 33.066370 32.982844 32.902125
32.824563 32.750458 32.680059 32.613559 32.551101 32.492772 32.438610 32.388603
32.342695 32.300790 32.262757 32.228435 32.197638 32.170162 32.145789 32.124291
32.105439 32.089001 32.074750 32.062467 32.051940 32.042971 32.035375 32.028977
32.023623 32.019168 32.015485 32.012458 32.009988 32.007985 32.006376 32.005090
32.004076 32.003281 32.002670 32.002204 32.001861 32.001611 32.001443 32.001334
32.001280 32.001260 32.001278 32.001316 32.001379 32.001453 32.001545 32.001640
32.001748 32.001855 32.001971 32.002083 32.002202 32.002313 32.002430 32.002537
32.002647 32.002747 32.002849 32.002940 32.003031 32.003112 32.003191 32.003261
32.003329 32.003387 32.003444 32.003492 32.003537 32.003576 32.003612 32.003641
32.003669 32.003691 32.003711 32.003727 32.003741 32.003752 32.003761 32.003767
32.003771 32.003773 32.003773 32.003771 32.003767 32.003761 32.003752 32.003741
32.003727 32.003711 32.003691 32.003669 32.003641 32.003612 32.003576 32.003537
32.003492 32.003444 32.003387 32.003329 32.003261 32.003191 32.003112 32.003031
32.002940 32.002849 32.002747 32.002646 32.002536 32.002428 32.002311 32.002199
32.002079 32.001966 32.001848 32.001738 32.001626 32.001526 32.001428 32.001345
32.001270 32.001216 32.001178 32.001170 32.001190 32.001255 32.001365 32.001543
32.001795 32.002147 32.002615 32.003234 32.004032 32.005053 32.006341 32.007956
32.009961 32.012436 32.015465 32.019151 32.023609 32.028966 32.035364 32.042963
32.051933 32.062461 32.074745 32.088997 32.105436 32.124289 32.145787 32.170160
32.197637 32.228434 32.262756 32.300790 32.342695 32.388603 32.438610 32.492772
32.551101 32.613559 32.680058 32.750458 32.824563 32.902125 32.982844 33.066370
33.152310 33.240232 33.329669 33.420132 33.511111
33.888889 33.775165 33.662086 33.550290 33.440388 33.332963 33.228555 33.127657
33.030704 32.938073 32.850073 32.766949 32.688876 32.615966 32.548263 32.485754
32.428369 32.375988 32.328447 32.285544 32.247049 32.212704 32.182238 32.155367
32.131802 32.111255 32.093442 32.078089 32.064932 32.053723 32.044229 32.036236
32.029545 32.023980 32.019378 32.015601 32.012517 32.010022 32.008014 32.006417
32.005155 32.004174 32.003417 32.002849 32.002429 32.002135 32.001935 32.001820
32.001762 32.001763 32.001797 32.001872 32.001964 32.002085 32.002214 32.002363
32.002513 32.002678 32.002838 32.003010 32.003172 32.003343 32.003501 32.003665
32.003815 32.003968 32.004107 32.004246 32.004369 32.004492 32.004600 32.004707
32.004799 32.004888 32.004964 32.005037 32.005099 32.005158 32.005206 32.005251
32.005288 32.005322 32.005350 32.005374 32.005393 32.005409 32.005421 32.005431
32.005436 32.005439 32.005439 32.005436 32.005431 32.005421 32.005409 32.005393
32.005374 32.005350 32.005322 32.005288 32.005251 32.005206 32.005158 32.005099
32.005037 32.004964 32.004888 32.004798 32.004707 32.004600 32.004492 32.004369
32.004245 32.004106 32.003968 32.003815 32.003664 32.003500 32.003340 32.003169
32.003005 32.002832 32.002670 32.002501 32.002347 32.002191 32.002054 32.001921
32.001814 32.001719 32.001659 32.001625 32.001640 32.001699 32.001828 32.002031
32.002338 32.002762 32.003342 32.004102 32.005094 32.006360 32.007966 32.009977
32.012480 32.015567 32.019351 32.023955 32.029524 32.036218 32.044215 32.053711
32.064922 32.078081 32.093436 32.111249 32.131797 32.155363 32.182235 32.212702
32.247047 32.285543 32.328446 32.375987 32.428369 32.485754 32.548263 32.615965
32.688876 32.766949 32.850073 32.938073 33.030704 33.127657 33.228555 33.332963
33.440388 33.550290 33.662086 33.775165 33.888889
34.266667 34.130198 33.994504 33.860348 33.728465 33.599555 33.474266 33.353188
33.236845 33.125688 33.020088 32.920339 32.826652 32.739159 32.657916 32.582906
32.514044 32.451187 32.394138 32.342655 32.296460 32.255247 32.218688 32.186444
32.158167 32.133512 32.112139 32.093716 32.077931 32.064482 32.053093 32.043503
32.035480 32.028806 32.023292 32.018763 32.015074 32.012086 32.009691 32.007782
32.006285 32.005118 32.004231 32.003563 32.003085 32.002747 32.002538 32.002417
32.002384 32.002404 32.002485 32.002596 32.002750 32.002919 32.003119 32.003323
32.003551 32.003774 32.004015 32.004245 32.004488 32.004716 32.004954 32.005172
32.005397 32.005601 32.005807 32.005992 32.006177 32.006340 32.006501 32.006642
32.006780 32.006898 32.007012 32.007109 32.007201 32.007278 32.007351 32.007411
32.007466 32.007511 32.007552 32.007584 32.007612 32.007633 32.007651 32.007663
32.007672 32.007676 32.007676 32.007672 32.007663 32.007651 32.007633 32.007612
32.007584 32.007552 32.007511 32.007466 32.007411 32.007351 32.007278 32.007201
32.007109 32.007012 32.006898 32.006780 32.006642 32.006501 32.006340 32.006176
32.005992 32.005806 32.005600 32.005396 32.005171 32.004952 32.004714 32.004484
32.004240 32.004007 32.003763 32.003536 32.003303 32.003091 32.002881 32.002699
32.002526 32.002392 32.002280 32.002219 32.002201 32.002255 32.002379 32.002608
32.002950 32.003446 32.004120 32.005022 32.006195 32.007706 32.009619 32.012026
32.015019 32.018718 32.023251 32.028772 32.035450 32.043479 32.053071 32.064465
32.077916 32.093705 32.112128 32.133504 32.158160 32.186439 32.218684 32.255244
32.296457 32.342653 32.394136 32.451185 32.514043 32.582905 32.657915 32.739159
32.826651 32.920339 33.020088 33.125688 33.236845 33.353188 33.474266 33.599555
33.728465 33.860348 33.994504 34.130198 34.266667
34.644444 34.485230 34.326921 34.170406 34.016543 33.866148 33.719977 33.578720
33.442986 33.313302 33.190103 33.073729 32.964427 32.862353 32.767569 32.680057
32.599719 32.526386 32.459829 32.399766 32.345873 32.297792 32.255141 32.217524
32.184535 32.155773 32.130839 32.109350 32.090936 32.075251 32.061967 32.050787
32.041431 32.033655 32.027229 32.021959 32.017664 32.014195 32.011412 32.009210
32.007477 32.006145 32.005128 32.004384 32.003848 32.003496 32.003277 32.003186
32.003176 32.003255 32.003382 32.003573 32.003789 32.004052 32.004324 32.004632
32.004937 32.005269 32.005589 32.005929 32.006252 32.006588 32.006901 32.007224
32.007519 32.007819 32.008091 32.008363 32.008606 32.008847 32.009058 32.009266
32.009445 32.009620 32.009769 32.009911 32.010032 32.010145 32.010240 32.010328
32.010400 32.010466 32.010519 32.010567 32.010604 32.010635 32.010658 32.010676
32.010687 32.010693 32.010693 32.010687 32.010676 32.010658 32.010635 32.010604
32.010567 32.010519 32.010466 32.010400 32.010328 32.010240 32.010145 32.010032
32.009911 32.009769 32.009620 32.009445 32.009265 32.009058 32.008846 32.008606
32.008363 32.008090 32.007819 32.007518 32.007222 32.006899 32.006585 32.006247
32.005923 32.005580 32.005256 32.004919 32.004608 32.004292 32.004008 32.003729
32.003492 32.003274 32.003111 32.002984 32.002933 32.002947 32.003066 32.003291
32.003668 32.004212 32.004980 32.006004 32.007357 32.009097 32.011318 32.014108
32.017591 32.021893 32.027174 32.033606 32.041391 32.050751 32.061939 32.075226
32.090916 32.109333 32.130826 32.155762 32.184526 32.217516 32.255135 32.297787
32.345869 32.399763 32.459826 32.526384 32.599717 32.680056 32.767568 32.862352
32.964427 33.073728 33.190103 33.313302 33.442986 33.578719 33.719977 33.866148
34.016543 34.170406 34.326921 34.485230 34.644444
35.022222 34.840263 34.659338 34.480464 34.304621 34.132740 33.965688 33.804251
33.649127 33.500917 33.360118 33.227119 33.102203 32.985546 32.877223 32.777209
32.685394 32.601585 32.525521 32.456878 32.395287 32.340339 32.291596 32.248607
32.210909 32.178040 32.149548 32.124992 32.103954 32.086032 32.070859 32.058088
32.047408 32.038530 32.031203 32.025192 32.020306 32.016357 32.013206 32.010708
32.008766 32.007268 32.006152 32.005332 32.004775 32.004409 32.004225 32.004161
32.004226 32.004363 32.004593 32.004863 32.005202 32.005559 32.005967 32.006377
32.006828 32.007267 32.007736 32.008184 32.008655 32.009096 32.009553 32.009975
32.010405 32.010798 32.011193 32.011548 32.011902 32.012215 32.012523 32.012793
32.013055 32.013281 32.013499 32.013683 32.013859 32.014006 32.014144 32.014258
32.014363 32.014448 32.014526 32.014587 32.014640 32.014681 32.014715 32.014738
32.014754 32.014761 32.014761 32.014754 32.014738 32.014715 32.014681 32.014640
32.014587 32.014526 32.014448 32.014363 32.014258 32.014144 32.014006 32.013859
32.013683 32.013499 32.013281 32.013055 32.012793 32.012523 32.012215 32.011901
32.011548 32.011192 32.010797 32.010404 32.009973 32.009550 32.009093 32.008649
32.008177 32.007726 32.007252 32.006808 32.006350 32.005930 32.005508 32.005133
32.004771 32.004469 32.004198 32.004007 32.003873 32.003847 32.003917 32.004138
32.004514 32.005105 32.005936 32.007082 32.008591 32.010560 32.013069 32.016242
32.020200 32.025105 32.031123 32.038465 32.047350 32.058041 32.070818 32.085999
32.103925 32.124969 32.149528 32.178024 32.210895 32.248597 32.291588 32.340332
32.395282 32.456874 32.525518 32.601583 32.685392 32.777208 32.877222 32.985546
33.102202 33.227118 33.360117 33.500917 33.649127 33.804251 33.965688 34.132740
34.304620 34.480464 34.659338 34.840263 35.022222
35.400000 35.195296 34.991756 34.790522 34.592698 34.399333 34.211399 34.029783
33.855268 33.688532 33.530133 33.380509 33.239979 33.108741 32.986877 32.874362
32.771070 32.676786 32.591214 32.513993 32.444704 32.382889 32.328055 32.279695
32.237287 32.200314 32.168265 32.140647 32.116984 32.096833 32.079771 32.065418
32.053414 32.043447 32.035218 32.028484 32.023006 32.018601 32.015082 32.012319
32.010166 32.008539 32.007324 32.006474 32.005895 32.005569 32.005418 32.005447
32.005584 32.005852 32.006183 32.006611 32.007072 32.007607 32.008151 32.008753
32.009347 32.009985 32.010600 32.011249 32.011864 32.012502 32.013097 32.013706
32.014267 32.014833 32.015346 32.015859 32.016317 32.016769 32.017168 32.017557
32.017896 32.018222 32.018502 32.018769 32.018995 32.019208 32.019385 32.019550
32.019684 32.019808 32.019907 32.019995 32.020064 32.020123 32.020165 32.020199
32.020220 32.020231 32.020231 32.020220 32.020199 32.020165 32.020123 32.020064
32.019995 32.019907 32.019808 32.019684 32.019550 32.019385 32.019208 32.018995
32.018769 32.018502 32.018222 32.017896 32.017557 32.017168 32.016769 32.016317
32.015858 32.015345 32.014832 32.014265 32.013704 32.013094 32.012498 32.011858
32.011241 32.010589 32.009969 32.009324 32.008723 32.008109 32.007550 32.006994
32.006507 32.006043 32.005666 32.005338 32.005122 32.004993 32.005016 32.005179
32.005553 32.006147 32.007041 32.008272 32.009937 32.012105 32.014902 32.018435
32.022868 32.028358 32.035114 32.043353 32.053338 32.065351 32.079717 32.096785
32.116946 32.140614 32.168239 32.200292 32.237270 32.279680 32.328044 32.382879
32.444697 32.513987 32.591210 32.676783 32.771068 32.874360 32.986875 33.108739
33.239978 33.380509 33.530132 33.688532 33.855268 34.029782 34.211399 34.399333
34.592698 34.790522 34.991756 35.195296 35.400000
35.777778 35.550329 35.324173 35.100580 34.880776 34.665925 34.457110 34.255314
34.061410 33.876147 33.700148 33.533900 33.377756 33.231935 33.096531 32.971515
32.856748 32.751988 32.656910 32.571109 32.494124 32.425442 32.364519 32.310788
32.263674 32.222598 32.186996 32.156315 32.130035 32.107654 32.088714 32.072780
32.059467 32.048409 32.039300 32.031842 32.025800 32.020937 32.017085 32.014056
32.011737 32.009981 32.008722 32.007840 32.007306 32.007019 32.006980 32.007099
32.007399 32.007795 32.008327 32.008912 32.009604 32.010315 32.011111 32.011903
32.012760 32.013594 32.014479 32.015324 32.016205 32.017034 32.017886 32.018675
32.019477 32.020210 32.020944 32.021606 32.022262 32.022845 32.023416 32.023917
32.024401 32.024821 32.025222 32.025564 32.025888 32.026160 32.026414 32.026624
32.026817 32.026974 32.027116 32.027229 32.027327 32.027402 32.027464 32.027506
32.027536 32.027550 32.027550 32.027536 32.027506 32.027464 32.027402 32.027327
32.027229 32.027116 32.026974 32.026817 32.026624 32.026414 32.026160 32.025888
32.025564 32.025222 32.024821 32.024401 32.023916 32.023416 32.022845 32.022261
32.021605 32.020943 32.020209 32.019476 32.018673 32.017883 32.017029 32.016199
32.015315 32.014466 32.013577 32.012736 32.011869 32.011065 32.010252 32.009518
32.008796 32.008172 32.007588 32.007125 32.006738 32.006508 32.006404 32.006511
32.006817 32.007413 32.008317 32.009633 32.011410 32.013777 32.016827 32.020721
32.025602 32.031677 32.039151 32.048287 32.059358 32.072692 32.088636 32.107592
32.129981 32.156272 32.186959 32.222569 32.263650 32.310770 32.364504 32.425430
32.494114 32.571102 32.656904 32.751984 32.856744 32.971513 33.096529 33.231934
33.377754 33.533899 33.700147 33.876147 34.061409 34.255314 34.457110 34.665925
34.880776 35.100579 35.324173 35.550329 35.777778
36.155556 35.905362 35.656590 35.410638 35.168853 34.932518 34.702821 34.480846
34.267551 34.063762 33.870163 33.687291 33.515532 33.355130 33.206187 33.068670
32.942426 32.827193 32.722607 32.628229 32.543547 32.468001 32.400989 32.341891
32.290070 32.244896 32.205741 32.172006 32.143109 32.118510 32.097691 32.080192
32.065569 32.053445 32.043454 32.035304 32.028697 32.023418 32.019231 32.015988
32.013502 32.011683 32.010378 32.009544 32.009054 32.008901 32.008972 32.009291
32.009752 32.010401 32.011133 32.012013 32.012932 32.013970 32.015013 32.016151
32.017268 32.018460 32.019607 32.020810 32.021950 32.023128 32.024229 32.025351
32.026384 32.027424 32.028369 32.029309 32.030152 32.030980 32.031712 32.032423
32.033044 32.033640 32.034152 32.034638 32.035051 32.035438 32.035761 32.036060
32.036305 32.036529 32.036709 32.036869 32.036994 32.037100 32.037178 32.037239
32.037276 32.037296 32.037296 32.037276 32.037239 32.037178 32.037100 32.036994
32.036869 32.036709 32.036529 32.036305 32.036060 32.035761 32.035438 32.035051
32.034638 32.034152 32.033640 32.033044 32.032423 32.031712 32.030980 32.030151
32.029309 32.028369 32.027423 32.026382 32.025348 32.024225 32.023123 32.021943
32.020800 32.019593 32.018440 32.017241 32.016114 32.014962 32.013900 32.012838
32.011886 32.010962 32.010174 32.009451 32.008895 32.008453 32.008225 32.008179
32.008419 32.008939 32.009852 32.011187 32.013078 32.015592 32.018896 32.023109
32.028439 32.035069 32.043261 32.053271 32.065427 32.080066 32.097590 32.118421
32.143038 32.171945 32.205693 32.244855 32.290039 32.341865 32.400969 32.467984
32.543534 32.628218 32.722599 32.827186 32.942422 33.068666 33.206184 33.355128
33.515531 33.687289 33.870163 34.063762 34.267550 34.480845 34.702821 34.932518
35.168853 35.410637 35.656590 35.905362 36.155556
36.533333 36.260395 35.989008 35.720696 35.456931 35.199111 34.948533 34.706378
34.473692 34.251378 34.040179 33.840682 33.653310 33.478326 33.315843 33.165826
33.028107 32.902399 32.788308 32.685352 32.592976 32.510566 32.437469 32.373004
32.316482 32.267209 32.224510 32.187720 32.156219 32.129401 32.106723 32.087657
32.071751 32.058559 32.047723 32.038878 32.031753 32.026056 32.021596 32.018139
32.015563 32.013678 32.012423 32.011635 32.011303 32.011282 32.011598 32.012115
32.012891 32.013791 32.014894 32.016065 32.017401 32.018759 32.020251 32.021729
32.023315 32.024856 32.026479 32.028030 32.029640 32.031156 32.032708 32.034149
32.035606 32.036940 32.038273 32.039476 32.040664 32.041722 32.042754 32.043661
32.044536 32.045295 32.046018 32.046635 32.047218 32.047708 32.048164 32.048542
32.048889 32.049171 32.049426 32.049627 32.049803 32.049937 32.050048 32.050124
32.050177 32.050202 32.050202 32.050177 32.050124 32.050048 32.049937 32.049803
32.049627 32.049426 32.049171 32.048889 32.048542 32.048164 32.047708 32.047218
32.046635 32.046018 32.045295 32.044536 32.043661 32.042754 32.041722 32.040663
32.039476 32.038272 32.036939 32.035604 32.034147 32.032704 32.031151 32.029632
32.028019 32.026464 32.024835 32.023286 32.021689 32.020195 32.018683 32.017298
32.015926 32.014708 32.013543 32.012562 32.011683 32.011031 32.010544 32.010349
32.010408 32.010853 32.011681 32.013038 32.014964 32.017627 32.021123 32.025658
32.031390 32.038576 32.047450 32.058335 32.071551 32.087495 32.106580 32.129287
32.156119 32.187642 32.224442 32.267156 32.316437 32.372969 32.437440 32.510543
32.592958 32.685339 32.788297 32.902390 33.028100 33.165821 33.315839 33.478323
33.653307 33.840680 34.040178 34.251377 34.473692 34.706377 34.948532 35.199111
35.456931 35.720695 35.989008 36.260395 36.533333
36.911111 36.615428 36.321425 36.030754 35.745009 35.465704 35.194244 34.931909
34.679834 34.438993 34.210195 33.994074 33.791088 33.601523 33.425501 33.262983
33.113789 32.977608 32.854013 32.742482 32.642411 32.553140 32.473958 32.404132
32.342909 32.289547 32.243303 32.203473 32.169366 32.140351 32.115811 32.095209
32.078017 32.063798 32.052114 32.042629 32.034984 32.028940 32.024204 32.020621
32.017953 32.016115 32.014906 32.014302 32.014124 32.014397 32.014954 32.015858
32.016944 32.018308 32.019778 32.021476 32.023221 32.025155 32.027088 32.029174
32.031218 32.033383 32.035470 32.037645 32.039710 32.041833 32.043821 32.045838
32.047701 32.049568 32.051268 32.052952 32.054465 32.055946 32.057258 32.058528
32.059638 32.060700 32.061615 32.062481 32.063216 32.063903 32.064478 32.065009
32.065445 32.065841 32.066160 32.066443 32.066663 32.066851 32.066989 32.067096
32.067163 32.067197 32.067197 32.067163 32.067096 32.066989 32.066851 32.066663
32.066443 32.066160 32.065841 32.065445 32.065009 32.064478 32.063903 32.063216
32.062481 32.061615 32.060700 32.059638 32.058528 32.057258 32.055946 32.054464
32.052952 32.051267 32.049566 32.047699 32.045836 32.043817 32.041828 32.039702
32.037633 32.035453 32.033360 32.031186 32.029130 32.027027 32.025072 32.023110
32.021325 32.019577 32.018039 32.016589 32.015389 32.014340 32.013598 32.013090
32.012972 32.013205 32.013951 32.015217 32.017182 32.019904 32.023596 32.028381
32.034516 32.042205 32.051763 32.063484 32.077760 32.094982 32.115628 32.140190
32.169238 32.203362 32.243216 32.289472 32.342851 32.404083 32.473920 32.553109
32.642388 32.742462 32.853998 32.977596 33.113781 33.262976 33.425495 33.601519
33.791085 33.994072 34.210194 34.438992 34.679833 34.931909 35.194244 35.465703
35.745009 36.030754 36.321425 36.615428 36.911111
37.288889 36.970461 36.653843 36.340812 36.033087 35.732297 35.439956 35.157442
34.885976 34.626609 34.380212 34.147466 33.928867 33.724721 33.535160 33.360143
33.199475 33.052821 32.919723 32.799616 32.691856 32.595724 32.510463 32.435275
32.369361 32.311909 32.262136 32.219265 32.182575 32.151360 32.124991 32.102851
32.084418 32.069169 32.056697 32.046569 32.038484 32.032089 32.027181 32.023469
32.020839 32.019044 32.018042 32.017616 32.017787 32.018349 32.019374 32.020659
32.022316 32.024137 32.026265 32.028480 32.030954 32.033452 32.036164 32.038846
32.041701 32.044475 32.047381 32.050162 32.053035 32.055745 32.058508 32.061078
32.063667 32.066042 32.068404 32.070542 32.072645 32.074521 32.076345 32.077951
32.079494 32.080834 32.082107 32.083196 32.084219 32.085082 32.085882 32.086547
32.087154 32.087649 32.088093 32.088446 32.088754 32.088988 32.089181 32.089314
32.089406 32.089449 32.089449 32.089406 32.089314 32.089181 32.088988 32.088754
32.088446 32.088093 32.087649 32.087154 32.086547 32.085882 32.085082 32.084219
32.083196 32.082106 32.080834 32.079494 32.077951 32.076345 32.074521 32.072644
32.070542 32.068403 32.066040 32.063664 32.061075 32.058503 32.055739 32.053026
32.050149 32.047363 32.044450 32.041666 32.038799 32.036099 32.033363 32.030834
32.028318 32.026048 32.023847 32.021933 32.020154 32.018713 32.017489 32.016674
32.016184 32.016210 32.016714 32.017893 32.019765 32.022550 32.026334 32.031373
32.037832 32.046026 32.056208 32.068767 32.084060 32.102560 32.124735 32.151155
32.182397 32.219123 32.262015 32.311814 32.369281 32.435213 32.510410 32.595684
32.691823 32.799591 32.919702 33.052806 33.199463 33.360134 33.535153 33.724716
33.928863 34.147463 34.380210 34.626608 34.885975 35.157441 35.439955 35.732296
36.033086 36.340812 36.653842 36.970461 37.288889
37.666667 37.325494 36.986260 36.650870 36.321165 35.998890 35.685667 35.382974
35.092118 34.814226 34.550229 34.300860 34.066647 33.847921 33.644821 33.457306
33.285165 33.128040 32.985439 32.856761 32.741310 32.638324 32.546983 32.466445
32.395839 32.334313 32.281009 32.235120 32.195846 32.162466 32.134266 32.110635
32.090958 32.074747 32.061483 32.050801 32.042272 32.035643 32.030558 32.026868
32.024270 32.022704 32.021904 32.021884 32.022396 32.023518 32.025003 32.026983
32.029202 32.031835 32.034610 32.037736 32.040925 32.044411 32.047887 32.051608
32.055254 32.059093 32.062796 32.066640 32.070294 32.074036 32.077545 32.081093
32.084374 32.087652 32.090641 32.093592 32.096247 32.098837 32.101136 32.103353
32.105293 32.107143 32.108740 32.110245 32.111525 32.112717 32.113716 32.114635
32.115392 32.116076 32.116628 32.117117 32.117498 32.117823 32.118061 32.118245
32.118359 32.118419 32.118419 32.118359 32.118245 32.118061 32.117823 32.117498
32.117117 32.116628 32.116076 32.115392 32.114635 32.113716 32.112717 32.111525
32.110245 32.108740 32.107143 32.105293 32.103353 32.101136 32.098837 32.096247
32.093591 32.090640 32.087650 32.084372 32.081090 32.077540 32.074029 32.070285
32.066626 32.062777 32.059066 32.055217 32.051557 32.047817 32.044315 32.040796
32.037563 32.034378 32.031525 32.028792 32.026442 32.024295 32.022596 32.021204
32.020350 32.019941 32.020207 32.021113 32.022899 32.025597 32.029477 32.034653
32.041441 32.050049 32.060860 32.074189 32.090502 32.110232 32.133940 32.162182
32.195619 32.234924 32.280855 32.334182 32.395737 32.466359 32.546917 32.638269
32.741268 32.856726 32.985413 33.128019 33.285149 33.457293 33.644812 33.847914
34.066642 34.300856 34.550226 34.814224 35.092117 35.382973 35.685666 35.998889
36.321164 36.650870 36.986260 37.325494 37.666667
38.044444 37.680527 37.318677 36.960928 36.609243 36.265483 35.931379 35.608507
35.298261 35.001843 34.720248 34.454254 34.204429 33.971123 33.754486 33.554472
33.370860 33.203264 33.051164 32.913915 32.790780 32.680940 32.583530 32.497640
32.422359 32.356758 32.299948 32.251040 32.209218 32.173670 32.143690 32.118565
32.097718 32.080539 32.066584 32.055343 32.046501 32.039631 32.034540 32.030863
32.028512 32.027168 32.026834 32.027211 32.028383 32.030054 32.032374 32.035037
32.038246 32.041677 32.045578 32.049599 32.054025 32.058478 32.063273 32.068011
32.073024 32.077901 32.082985 32.087858 32.092870 32.097607 32.102417 32.106901
32.111397 32.115532 32.119629 32.123344 32.126982 32.130237 32.133387 32.136166
32.138825 32.141139 32.143328 32.145206 32.146962 32.148446 32.149817 32.150957