# vtk DataFile Version 3.0
Steady-state temperature (Jacobi)
ASCII
DATASET STRUCTURED_POINTS
DIMENSIONS 181 181 1
ORIGIN 0.0 0.0 0.0
SPACING 0.05 0.05 1.0
POINT_DATA 32761
SCALARS Temperature float 1
LOOKUP_TABLE default
32.000000 32.000000 32.000000 32.000000 32.000000 32.000000 32.000000 32.000000
32.000000 32.000000 32.000000 32.000000 32.000000 32.000000 32.000000 32.000000
32.000000 32.000000 32.000000 32.000000 32.000000 32.000000 32.000000 32.000000
32.000000 32.000000 32.000000 32.000000 32.000000 32.000000 32.000000 32.000000
32.000000 32.000000 32.000000 32.000000 32.000000 32.000000 32.000000 32.000000
32.000000 32.000000 32.000000 32.000000 32.000000 32.000000 32.000000 32.000000
32.000000 32.000000 32.000000 32.000000 32.000000 32.000000 32.000000 32.000000
32.000000 32.000000 32.000000 32.000000 32.000000 32.000000 32.000000 32.000000
32.000000 32.000000 32.000000 32.000000 32.000000 32.000000 32.000000 32.000000
32.000000 32.000000 32.000000 32.000000 32.000000 32.000000 32.000000 32.000000
32.000000 32.000000 32.000000 32.000000 32.000000 32.000000 32.000000 32.000000
32.000000 32.000000 32.000000 32.000000 32.000000 32.000000 32.000000 32.000000
32.000000 32.000000 32.000000 32.000000 32.000000 32.000000 32.000000 32.000000
32.000000 32.000000 32.000000 32.000000 32.000000 32.000000 32.000000 32.000000
32.000000 32.000000 32.000000 32.000000 32.000000 32.000000 32.000000 32.000000
32.000000 32.000000 32.000000 32.000000 32.000000 32.000000 32.000000 32.000000
32.000000 32.000000 32.000000 32.000000 32.000000 32.000000 32.000000 32.000000
32.000000 32.000000 32.000000 32.000000 32.000000 32.000000 32.000000 32.000000
32.000000 32.000000 32.000000 32.000000 32.000000 32.000000 32.000000 32.000000
32.000000 32.000000 32.000000 32.000000 32.000000 32.000000 32.000000 32.000000
32.000000 32.000000 32.000000 32.000000 32.000000 32.000000 32.000000 32.000000
32.000000 32.000000 32.000000 32.000000 32.000000 32.000000 32.000000 32.000000
32.000000 32.000000 32.000000 32.000000 32.000000
32.377778 32.389457 32.401160 32.412915 32.424742 32.436673 32.448722 32.460925
32.473292 32.485860 32.498635 32.511655 32.524923 32.538478 32.552316 32.566479
32.580957 32.595793 32.610970 32.626533 32.642460 32.658793 32.675505 32.692640
32.710164 32.728119 32.746465 32.765245 32.784411 32.804006 32.823976 32.844360
32.865102 32.886238 32.907706 32.929540 32.951672 32.974136 32.996859 33.019871
33.043097 33.066563 33.090191 33.114005 33.137924 33.161971 33.186060 33.210214
33.234345 33.258475 33.282515 33.306484 33.330294 33.353964 33.377406 33.400636
33.423571 33.446225 33.468516 33.490459 33.511975 33.533079 33.553695 33.573837
33.593435 33.612503 33.630974 33.648862 33.666107 33.682722 33.698652 33.713910
33.728446 33.742273 33.755346 33.767679 33.779232 33.790016 33.799999 33.809190
33.817563 33.825125 33.831855 33.837760 33.842822 33.847047 33.850424 33.852955
33.854635 33.855463 33.855439 33.854562 33.852835 33.850255 33.846829 33.842555
33.837443 33.831488 33.824708 33.817095 33.808671 33.799427 33.789391 33.778553
33.766946 33.754557 33.741428 33.727544 33.712950 33.697633 33.681644 33.664969
33.647664 33.629714 33.611182 33.592052 33.572392 33.552187 33.531509 33.510344
33.488766 33.466761 33.444410 33.421697 33.398704 33.375417 33.351921 33.328199
33.304338 33.280323 33.256239 33.232069 33.207901 33.183716 33.159600 33.135532
33.111597 33.087773 33.064143 33.040682 33.017469 32.994478 32.971786 32.949362
32.927280 32.905508 32.884114 32.863063 32.842419 32.822146 32.802302 32.782849
32.763839 32.745232 32.727076 32.709328 32.692030 32.675140 32.658692 32.642642
32.627022 32.611785 32.596957 32.582492 32.568409 32.554664 32.541269 32.528180
32.515405 32.502901 32.490669 32.478670 32.466898 32.455316 32.443915 32.432658
32.421532 32.410503 32.399553 32.388652 32.377778
32.755556 32.778932 32.802361 32.825887 32.849568 32.873441 32.897570 32.921984
32.946753 32.971894 32.997483 33.023528 33.050107 33.077217 33.104942 33.133267
33.162276 33.191943 33.222356 33.253476 33.285391 33.318051 33.351543 33.385806
33.420925 33.456826 33.493595 33.531145 33.569558 33.608737 33.648761 33.689521
33.731093 33.773356 33.816382 33.860042 33.904401 33.949321 33.994863 34.040881
34.087430 34.134356 34.181712 34.229335 34.277273 34.325361 34.373641 34.421943
34.470307 34.518560 34.566740 34.614673 34.662392 34.709725 34.756705 34.803160
34.849122 34.894423 34.939094 34.982974 35.026090 35.068290 35.109601 35.149877
35.189147 35.227273 35.264283 35.300051 35.334603 35.367823 35.399739 35.430245
35.459367 35.487011 35.513202 35.537858 35.561002 35.582561 35.602559 35.620933
35.637705 35.652822 35.666303 35.678106 35.688246 35.696693 35.703457 35.708517
35.711881 35.713538 35.713489 35.711736 35.708276 35.703119 35.696258 35.687713
35.677474 35.665571 35.651989 35.636770 35.619895 35.601416 35.581312 35.559645
35.536392 35.511626 35.485321 35.457564 35.428326 35.397703 35.365669 35.332329
35.297655 35.261766 35.224632 35.186382 35.146988 35.106588 35.065152 35.022828
34.979588 34.935587 34.890795 34.845375 34.799298 34.752730 34.705641 34.658203
34.610384 34.562358 34.514090 34.465757 34.417320 34.368954 34.320621 34.272491
34.224520 34.176879 34.129518 34.082603 34.036079 33.990105 33.944623 33.899784
33.855526 33.811990 33.769109 33.727017 33.685642 33.645106 33.605334 33.566437
33.528337 33.491133 33.454744 33.419258 33.384590 33.350818 33.317854 33.285764
33.254459 33.223993 33.194277 33.165354 33.137134 33.109647 33.082807 33.056631
33.031036 33.006027 32.981524 32.957522 32.933943 32.910773 32.887938 32.865415
32.843135 32.821065 32.799142 32.777324 32.755556
33.133333 33.168449 33.203638 33.238983 33.274544 33.310416 33.346647 33.383337
33.420522 33.458311 33.496722 33.535874 33.575768 33.616526 33.658136 33.700723
33.744257 33.788868 33.834507 33.881304 33.929196 33.978312 34.028569 34.080097
34.132795 34.186790 34.241963 34.298440 34.356082 34.415010 34.475070 34.536377
34.598760 34.662329 34.726897 34.792567 34.859137 34.926704 34.995051 35.064268
35.134128 35.204713 35.275783 35.347416 35.419363 35.491693 35.564153 35.636806
35.709392 35.781971 35.854281 35.926374 35.997992 36.069183 36.139689 36.209557
36.278534 36.346664 36.413702 36.479690 36.544393 36.607852 36.669842 36.730405
36.789329 36.846656 36.902187 36.955964 37.007803 37.057748 37.105629 37.151490
37.195177 37.236733 37.276022 37.313083 37.347798 37.380203 37.410198 37.437815
37.462970 37.485690 37.505908 37.523647 37.538854 37.551549 37.561692 37.569297
37.574342 37.576832 37.576759 37.574125 37.568936 37.561186 37.550897 37.538055
37.522700 37.504811 37.484442 37.461568 37.436259 37.408485 37.378331 37.345764
37.310886 37.273658 37.234201 37.192475 37.148614 37.102578 37.054519 37.004395
36.952374 36.898413 36.842698 36.785185 36.726075 36.665325 36.603148 36.539503
36.474616 36.408444 36.341226 36.272918 36.203767 36.133730 36.063061 35.991713
35.919946 35.847711 35.775270 35.702571 35.629876 35.557128 35.484588 35.412193
35.340200 35.268539 35.197462 35.126892 35.057072 34.987918 34.919663 34.852218
34.785801 34.720315 34.655968 34.592655 34.530567 34.469596 34.409915 34.351410
34.294239 34.238282 34.183679 34.130306 34.078287 34.027493 33.978031 33.929769
33.882795 33.836978 33.792388 33.748893 33.706545 33.665213 33.624934 33.585577
33.547163 33.509564 33.472785 33.436704 33.401308 33.366483 33.332200 33.298352
33.264896 33.231734 33.198809 33.166031 33.133333
33.511111 33.558022 33.605038 33.652247 33.699769 33.747675 33.796098 33.845091
33.894796 33.945249 33.996601 34.048867 34.102207 34.156614 34.212254 34.269099
34.327317 34.386859 34.447897 34.510356 34.574411 34.639963 34.707185 34.775956
34.846446 34.918510 34.992315 35.067691 35.144801 35.223451 35.303798 35.385626
35.469084 35.553933 35.640315 35.727970 35.817032 35.907222 35.998663 36.091060
36.184525 36.278748 36.373835 36.469459 36.565717 36.662274 36.759218 36.856205
36.953317 37.050205 37.146944 37.243184 37.338994 37.434027 37.528346 37.621610
37.713879 37.804819 37.894489 37.982566 38.069106 38.153802 38.236709 38.317534
38.396334 38.472834 38.547090 38.618848 38.688162 38.754800 38.818817 38.880000
38.938404 38.993840 39.046359 39.095795 39.142197 39.185420 39.225509 39.262342
39.295960 39.326261 39.353280 39.376936 39.397259 39.414187 39.427741 39.437883
39.444624 39.447944 39.447848 39.444335 39.437402 39.427067 39.413318 39.396195
39.375675 39.351819 39.324599 39.294095 39.260270 39.223229 39.182927 39.139489
39.092869 39.043213 38.990469 38.934806 38.876170 38.814753 38.750500 38.683623
38.614066 38.542065 38.467563 38.390815 38.311767 38.230692 38.147537 38.062593
37.975806 37.887485 37.797574 37.706398 37.613897 37.520408 37.425871 37.330629
37.234620 37.138192 37.041279 36.944230 36.846974 36.749860 36.652809 36.556167
36.459846 36.364186 36.269090 36.174888 36.081474 35.989165 35.897847 35.807819
35.718960 35.631553 35.545464 35.460958 35.377894 35.296517 35.216675 35.138591
35.062109 34.987427 34.914382 34.843152 34.773566 34.705777 34.639613 34.575204
34.512372 34.451225 34.391585 34.333535 34.276897 34.221732 34.167866 34.115333
34.063965 34.013775 33.964599 33.916430 33.869110 33.822611 33.776785 33.731584
33.686871 33.642579 33.598582 33.554797 33.511111
33.888889 33.947677 34.006587 34.065758 34.125293 34.185348 34.246002 34.307428
34.369681 34.432946 34.497255 34.562802 34.629593 34.697833 34.767499 34.838803
34.911694 34.986388 35.062806 35.141166 35.221360 35.303605 35.387764 35.474052
35.562303 35.652729 35.745131 35.839717 35.936259 36.034958 36.135557 36.238247
36.342743 36.449228 36.557391 36.667401 36.778924 36.892117 37.006623 37.122588
37.239632 37.357891 37.476968 37.596986 37.717533 37.838721 37.960127 38.081855
38.203471 38.325071 38.446219 38.567002 38.686984 38.806246 38.924357 39.041392
39.156930 39.271042 39.383318 39.493828 39.602178 39.708437 39.812229 39.913623
40.012264 40.108221 40.201165 40.291164 40.377913 40.461482 40.541591 40.618311
40.691390 40.760895 40.826603 40.888578 40.946627 41.000808 41.050955 41.097123
41.139171 41.177148 41.210940 41.240588 41.266003 41.287217 41.304168 41.316877
41.325307 41.329468 41.329348 41.324947 41.316277 41.303327 41.286134 41.264675
41.239014 41.209118 41.175074 41.136843 41.094538 41.048109 40.997698 40.943248
40.884928 40.822676 40.756688 40.686898 40.613532 40.536520 40.456115 40.372247
40.285196 40.194892 40.101641 40.005374 39.906423 39.804718 39.700616 39.594047
39.485390 39.374574 39.261997 39.147590 39.031763 38.914446 38.796063 38.676540
38.556309 38.435292 38.313926 38.192126 38.070329 37.948444 37.826905 37.705609
37.584986 37.464922 37.345835 37.227601 37.110624 36.994767 36.880417 36.767426
36.656160 36.546459 36.438666 36.332609 36.228608 36.126480 36.026516 35.928525
35.832771 35.739052 35.647605 35.558220 35.471104 35.386043 35.303212 35.222394
35.143736 35.067016 34.992351 34.919521 34.848614 34.779409 34.711967 34.646070
34.581752 34.518801 34.457221 34.396811 34.337549 34.279242 34.221843 34.165172
34.109159 34.053636 33.998511 33.943634 33.888889
34.266667 34.337424 34.408340 34.479548 34.551227 34.623487 34.696525 34.770425
34.845400 34.921503 34.998964 35.077804 35.158266 35.240338 35.324272 35.410024
35.497852 35.587678 35.679763 35.773996 35.870638 35.969542 36.070970 36.174738
36.281104 36.389849 36.501225 36.614977 36.731349 36.850051 36.971319 37.094826
37.220798 37.348876 37.479272 37.611597 37.746047 37.882207 38.020258 38.159756
38.300871 38.443134 38.586701 38.731084 38.876423 39.022217 39.168592 39.315034
39.461660 39.607948 39.754004 39.899305 40.043948 40.187414 40.329794 40.470574
40.609841 40.747096 40.882420 41.015331 41.145910 41.273695 41.398766 41.520687
41.639537 41.754907 41.866878 41.975070 42.079564 42.180012 42.276496 42.368699
42.456703 42.540224 42.619341 42.693805 42.763691 42.828782 42.889148 42.944605
42.995217 43.040831 43.081502 43.117109 43.147696 43.173173 43.193572 43.208834
43.218979 43.223976 43.223833 43.218548 43.208116 43.192565 43.171875 43.146106
43.115224 43.079320 43.038348 42.992430 42.941510 42.885740 42.825057 42.759645
42.689433 42.614639 42.535185 42.451324 42.362975 42.270422 42.173584 42.072778
41.967921 41.859364 41.747024 41.631284 41.512061 41.389769 41.264324 41.136168
41.005220 40.871944 40.736259 40.598650 40.459036 40.317919 40.175213 40.031434
39.886492 39.740910 39.594592 39.448065 39.301223 39.154593 39.008058 38.862138
38.716706 38.572270 38.428690 38.286460 38.145424 38.006058 37.868193 37.732280
37.598136 37.466186 37.336233 37.208673 37.083295 36.960465 36.839960 36.722111
36.606684 36.493979 36.383748 36.276258 36.171254 36.068965 35.969132 35.871947
35.777148 35.684890 35.594910 35.507330 35.421883 35.338659 35.257395 35.178145
35.100653 35.024938 34.950755 34.878090 34.806707 34.736563 34.667434 34.599249
34.531799 34.464985 34.398616 34.332567 34.266667
34.644444 34.727293 34.810313 34.893702 34.977604 35.062238 35.147719 35.234287
35.322022 35.411185 35.501820 35.594201 35.688339 35.784518 35.882712 35.983215
36.085960 36.191248 36.298970 36.409433 36.522486 36.638434 36.757086 36.878745
37.003177 37.130679 37.260976 37.394357 37.530505 37.669699 37.811581 37.956418
38.103812 38.254016 38.406595 38.561785 38.719118 38.878812 39.040365 39.203980
39.369126 39.535988 39.704009 39.873359 40.043460 40.214464 40.385778 40.557541
40.729148 40.900725 41.071662 41.242075 41.411353 41.579603 41.746222 41.911309
42.074274 42.235211 42.393547 42.549374 42.702142 42.851940 42.998246 43.141150
43.280158 43.415365 43.546307 43.673081 43.795261 43.912942 44.025737 44.133741
44.236605 44.334424 44.426886 44.514084 44.595745 44.671956 44.742484 44.807407
44.866531 44.919925 44.967431 45.009107 45.044831 45.074649 45.098473 45.116335
45.128183 45.134032 45.133866 45.127682 45.115500 45.097302 45.073140 45.042982
45.006914 44.964892 44.917036 44.863288 44.803805 44.738518 44.667621 44.591036
44.508995 44.421413 44.328559 44.230344 44.127078 44.018666 43.905459 43.787360
43.664759 43.537559 43.406187 43.270549 43.131107 42.987768 42.841029 42.690797
42.537600 42.381347 42.222591 42.061240 41.897871 41.732390 41.565392 41.396777
41.227152 41.056412 40.885171 40.713314 40.541456 40.369473 40.197974 40.026822
39.856616 39.687203 39.519170 39.352346 39.187296 39.023834 38.862501 38.703094
38.546124 38.391370 38.239311 38.089712 37.943016 37.798970 37.657982 37.519784
37.384745 37.252585 37.123631 36.997593 36.874758 36.754826 36.638043 36.524102
36.413208 36.305052 36.199796 36.097129 35.997174 35.899623 35.804556 35.711672
35.621012 35.532282 35.445485 35.360338 35.276809 35.194627 35.113726 35.033851
34.954903 34.876647 34.798951 34.721604 34.644444
35.022222 35.117289 35.212567 35.308240 35.404545 35.501632 35.599766 35.699058
35.799795 35.902051 36.006131 36.112069 36.220186 36.330472 36.443260 36.558498
36.676526 36.797246 36.921005 37.047657 37.177551 37.310494 37.446833 37.586327
37.729318 37.875518 38.025260 38.178208 38.334686 38.494308 38.657386 38.823490
38.992914 39.165184 39.340577 39.518578 39.699444 39.882621 40.068348 40.256033
40.445896 40.637314 40.830488 41.024767 41.220332 41.416514 41.613474 41.810527
42.007819 42.204656 42.401171 42.596665 42.791261 42.984264 43.175788 43.365149
43.552454 43.737037 43.919000 44.097701 44.273241 44.445004 44.613093 44.776926
44.936605 45.091585 45.241972 45.387260 45.527557 45.662399 45.791895 45.915625
46.033697 46.145737 46.251851 46.351707 46.445409 46.532669 46.613582 46.687907
46.755727 46.816845 46.871332 46.919031 46.960001 46.994126 47.021447 47.041888
47.055475 47.062169 47.061979 47.054904 47.040936 47.020112 46.992406 46.957894
46.916533 46.868439 46.813553 46.752032 46.683802 46.609063 46.527730 46.440043
46.345909 46.245613 46.139054 46.026562 45.908030 45.783836 45.653869 45.518550
45.377772 45.231998 45.081121 44.925648 44.765474 44.601146 44.432561 44.260305
44.084273 43.905087 43.722643 43.537589 43.349822 43.160013 42.968055 42.774636
42.579643 42.383776 42.186913 41.989759 41.792180 41.594877 41.397706 41.201358
41.005671 40.811323 40.618135 40.426764 40.237010 40.049505 39.864029 39.681185
39.500731 39.323235 39.148436 38.976863 38.808237 38.643044 38.480988 38.322511
38.167302 38.015757 37.867552 37.723034 37.581869 37.444359 37.310157 37.179520
37.052096 36.928091 36.807154 36.689443 36.574607 36.462757 36.353547 36.247044
36.142907 36.041159 35.941471 35.843824 35.747901 35.653643 35.560751 35.469127
35.378491 35.288710 35.199527 35.110775 35.022222
35.400000 35.507444 35.615110 35.723256 35.832066 35.941828 36.052690 36.164961
36.278750 36.394390 36.511944 36.631764 36.753867 36.878621 37.005993 37.136363
37.269648 37.406235 37.545989 37.689302 37.835986 37.986431 38.140397 38.298270
38.459755 38.625231 38.794348 38.967476 39.144211 39.324908 39.509111 39.697158
39.888543 40.083585 40.281727 40.483270 40.687610 40.895024 41.104869 41.317399
41.531930 41.748694 41.966976 42.186985 42.407977 42.630141 42.852713 43.075861
43.298807 43.521704 43.743765 43.965130 44.185012 44.403539 44.619934 44.834316
45.045923 45.254870 45.460417 45.662676 45.860938 46.055313 46.245127 46.430493
46.610776 46.786092 46.955849 47.120167 47.278500 47.430970 47.577082 47.716957
47.850151 47.976783 48.096461 48.209299 48.314956 48.413542 48.504762 48.588719
48.665166 48.734193 48.795602 48.849468 48.895637 48.934170 48.964956 48.988037
49.003346 49.010906 49.010693 49.002707 48.986970 48.963460 48.932242 48.893275
48.846667 48.792359 48.730503 48.661023 48.584117 48.499696 48.408004 48.308940
48.202797 48.089466 47.969288 47.842148 47.708440 47.568043 47.421402 47.268397
47.109523 46.944660 46.774352 46.598483 46.417644 46.231721 46.041350 45.846420
45.647607 45.444802 45.238715 45.029238 44.817113 44.602227 44.385345 44.166349
43.946023 43.724239 43.501788 43.278533 43.055267 42.831838 42.609031 42.386679
42.165554 41.945468 41.727173 41.510461 41.296057 41.083730 40.874173 40.667132
40.463262 40.262287 40.064821 39.870563 39.680083 39.493061 39.310016 39.130609
38.955310 38.783763 38.616384 38.452803 38.293384 38.137745 37.986197 37.838349
37.694458 37.554128 37.417563 37.284366 37.154689 37.028137 36.904809 36.784318
36.666712 36.551614 36.439025 36.328578 36.220230 36.113632 36.008695 35.905090
35.802687 35.701183 35.600406 35.500081 35.400000
35.777778 35.897759 36.018007 36.138753 36.260299 36.382833 36.506688 36.632009
36.759154 36.888220 37.019591 37.153312 37.289785 37.429003 37.571382 37.716862
37.865869 38.018284 38.174540 38.334461 38.498482 38.666367 38.838547 39.014727
39.195333 39.380008 39.569168 39.762396 39.960094 40.161785 40.367854 40.577767
40.791887 41.009626 41.231323 41.456338 41.684986 41.916575 42.151397 42.388714
42.628791 42.870852 43.115135 43.360830 43.608151 43.856260 44.105349 44.354558
44.604061 44.852986 45.101487 45.348690 45.594736 45.838754 46.080874 46.320239
46.556973 46.790240 47.020160 47.245927 47.467658 47.684585 47.896827 48.103657
48.305199 48.500772 48.690502 48.873763 49.050682 49.220688 49.383911 49.539833
49.688589 49.829714 49.963342 50.089065 50.207011 50.316829 50.418638 50.512141
50.597446 50.674309 50.742822 50.802794 50.854299 50.897194 50.931536 50.957228
50.974306 50.982721 50.982486 50.973598 50.956048 50.929880 50.895061 50.851685
50.799695 50.739233 50.670224 50.592860 50.507048 50.413030 50.310699 50.200351
50.081867 49.955598 49.821416 49.679728 49.530402 49.373901 49.210092 49.039494
48.861974 48.678109 48.487767 48.291581 48.089423 47.881975 47.669115 47.451572
47.229229 47.002856 46.772338 46.538483 46.301174 46.061249 45.818588 45.574052
45.327513 45.079846 44.830911 44.581592 44.331733 44.082214 43.832864 43.584550
43.337080 43.091304 42.847006 42.605008 42.365072 42.127986 41.893484 41.662316
41.434191 41.209814 40.988868 40.772008 40.558895 40.350130 40.145349 39.945102
39.749002 39.557542 39.370316 39.187760 39.009453 38.835769 38.666279 38.501296
38.340383 38.183794 38.031088 37.882459 37.737468 37.596252 37.458375 37.323916
37.192450 37.064003 36.938159 36.814892 36.693804 36.574819 36.457560 36.341902
36.227493 36.114162 36.001588 35.889556 35.777778
36.155556 36.288267 36.421255 36.554835 36.689238 36.824817 36.961756 37.100439
37.241000 37.383850 37.529069 37.677091 37.827940 37.982068 38.139439 38.300519
38.465211 38.633990 38.806696 38.983807 39.165099 39.351049 39.541368 39.736527
39.936171 40.140761 40.349876 40.563962 40.782533 41.006018 41.233865 41.466482
41.703254 41.944564 42.189738 42.439134 42.692017 42.948719 43.208452 43.471520
43.737087 44.005426 44.275662 44.548039 44.821648 45.096705 45.372275 45.648550
45.924577 46.200528 46.475438 46.749463 47.021640 47.292110 47.559920 47.825200
48.087020 48.345503 48.599746 48.849873 49.095015 49.335298 49.569899 49.798946
50.021665 50.238190 50.447803 50.650643 50.846049 51.034166 51.214394 51.386879
51.551086 51.707159 51.854626 51.993629 52.123757 52.245144 52.357441 52.460771
52.554844 52.639769 52.715310 52.781562 52.838342 52.885724 52.923579 52.951957
52.970782 52.980078 52.979820 52.970007 52.950665 52.921766 52.883388 52.835480
52.778168 52.711380 52.635296 52.549822 52.455193 52.351298 52.238430 52.116461
51.985744 51.846142 51.698067 51.541377 51.376544 51.203424 51.022553 50.833786
50.637722 50.434218 50.223935 50.006736 49.783340 49.553614 49.318336 49.077376
48.831561 48.580769 48.325869 48.066739 47.804289 47.538393 47.269991 46.998951
46.726233 46.451697 46.176313 45.899928 45.623513 45.346897 45.071043 44.795760
44.521992 44.249525 43.979278 43.711009 43.445603 43.182789 42.923414 42.667176
42.414876 42.166183 41.921845 41.681503 41.445848 41.214496 40.988078 40.766184
40.549383 40.337244 40.130272 39.928016 39.730917 39.538509 39.351168 39.168415
38.990561 38.817123 38.648344 38.483739 38.323488 38.167108 38.014715 37.865835
37.720523 37.578315 37.439207 37.302752 37.168889 37.037193 36.907547 36.779552
36.653040 36.527641 36.403139 36.279197 36.155556
36.533333 36.678967 36.824925 36.971489 37.119024 37.267762 37.418104 37.570229
37.724572 37.881252 38.040733 38.203074 38.368761 38.537790 38.710663 38.887312
39.068250 39.253342 39.443108 39.637342 39.836565 40.040501 40.249668 40.463717
40.683157 40.907566 41.137442 41.372289 41.612586 41.857767 42.108289 42.363515
42.623877 42.888671 43.158298 43.431992 43.710123 43.991864 44.277552 44.566306
44.858430 45.152994 45.450269 45.749283 46.050278 46.352245 46.655400 46.958709
47.262361 47.565307 47.867716 48.168534 48.467912 48.764802 49.059342 49.350501
49.638410 49.922064 50.201591 50.476022 50.745485 51.009057 51.266870 51.518052
51.762741 52.000126 52.230350 52.452664 52.667219 52.873333 53.071161 53.260089
53.440274 53.611172 53.772941 53.925101 54.067807 54.200648 54.323767 54.436818
54.539932 54.632825 54.715611 54.788065 54.850281 54.902092 54.943567 54.974596
54.995220 55.005385 55.005105 54.994379 54.973193 54.941600 54.899557 54.847174
54.784381 54.711344 54.627969 54.534480 54.430761 54.317098 54.193357 54.059885
53.916538 53.763727 53.601298 53.429729 53.248862 53.059244 52.860717 52.653895
52.438624 52.215587 51.984634 51.746515 51.501089 51.249168 50.990616 50.726308
50.456113 50.180957 49.900714 49.616357 49.327760 49.035932 48.740745 48.443236
48.143268 47.841896 47.538970 47.235553 46.931477 46.627801 46.324336 46.022126
45.720959 45.421852 45.124565 44.830083 44.538135 44.249665 43.964369 43.683143
43.405649 43.132731 42.864016 42.600290 42.341150 42.087315 41.838355 41.594923
41.356561 41.123854 40.896320 40.674474 40.457817 40.246789 40.040877 39.840451
39.644987 39.454783 39.269312 39.088799 38.912718 38.741225 38.573797 38.410524
38.250893 38.094929 37.942134 37.792468 37.645454 37.500992 37.358630 37.218211
37.079311 36.941721 36.805050 36.669038 36.533333
36.911111 37.069892 37.229003 37.388824 37.549632 37.711848 37.875696 38.041632
38.209822 38.380753 38.554527 38.731660 38.912187 39.096642 39.284993 39.477790
39.674928 39.876966 40.083725 40.295769 40.512841 40.735505 40.963425 41.197159
41.436293 41.681371 41.931901 42.188408 42.450324 42.718150 42.991242 43.270074
43.553926 43.843243 44.137232 44.436306 44.739602 45.047499 45.359071 45.674658
45.993279 46.315239 46.639504 46.966345 47.294685 47.624763 47.955470 48.287013
48.618263 48.949399 49.279281 49.608069 49.934621 50.259081 50.580321 50.898473
51.212433 51.522329 51.827089 52.126842 52.420563 52.708383 52.989330 53.263542
53.530109 53.789178 54.039906 54.282448 54.516033 54.740823 54.956122 55.162098
55.358128 55.544384 55.720317 55.886097 56.041249 56.185934 56.319750 56.442848
56.554891 56.656014 56.745949 56.824808 56.892384 56.948766 56.993809 57.027573
57.049971 57.061034 57.060732 57.049066 57.026062 56.991690 56.946035 56.889037
56.820839 56.741352 56.650783 56.549016 56.436321 56.312563 56.178077 56.032710
55.876867 55.710385 55.533739 55.346758 55.149993 54.943272 54.727218 54.501662
54.267304 54.023980 53.772465 53.512603 53.245239 52.970228 52.688482 52.399866
52.105354 51.804816 51.499282 51.188626 50.873923 50.555047 50.233109 49.907977
49.580789 49.251401 48.920962 48.589315 48.257611 47.925669 47.594631 47.264291
46.935769 46.608828 46.284557 45.962686 45.644263 45.328984 45.017846 44.710508
44.407912 44.109680 43.816692 43.528534 43.246018 42.968697 42.697312 42.431384
42.171582 41.917398 41.669424 41.427131 41.191032 40.960579 40.736207 40.517356
40.304382 40.096716 39.894637 39.697574 39.505729 39.318533 39.136116 38.957914
38.783986 38.613783 38.447292 38.283984 38.123779 37.966171 37.811019 37.657845
37.506447 37.356382 37.207391 37.059071 36.911111
37.288889 37.461034 37.633564 37.806812 37.981209 38.157031 38.334752 38.514587
38.697046 38.882278 39.070824 39.262764 39.458665 39.658533 39.862954 40.071858
40.285844 40.504764 40.729225 40.958996 41.194684 41.435978 41.683479 41.936789
42.196501 42.462132 42.734256 43.012307 43.296836 43.587192 43.883901 44.186229
44.494669 44.808407 45.127902 45.452263 45.781910 46.115883 46.454560 46.796914
47.143285 47.492586 47.845118 48.199742 48.556721 48.914876 49.274435 49.634188
49.994331 50.353637 50.712275 51.069013 51.423999 51.776007 52.125172 52.470288
52.811480 53.147576 53.478699 53.803720 54.122766 54.434762 54.739843 55.036996
55.326367 55.607015 55.879095 56.141743 56.395126 56.638459 56.871917 57.094797
57.307280 57.508744 57.699373 57.878623 58.046674 58.203062 58.347956 58.480968
58.602252 58.711491 58.808819 58.893987 58.967105 59.027988 59.076718 59.113174
59.137406 59.149352 59.149029 59.136436 59.111557 59.074450 59.025065 58.963522
58.889738 58.803898 58.705890 58.595963 58.473981 58.340261 58.194648 58.037530
57.868737 57.688734 57.497341 57.295100 57.081828 56.858148 56.623879 56.379725
56.125511 55.862024 55.589097 55.307598 55.017371 54.719360 54.413420 54.100569
53.780672 53.454808 53.122853 52.785940 52.443947 52.098055 51.748138 51.395411
51.039739 50.682358 50.323121 49.963269 49.602636 49.242459 48.882544 48.524112
48.166937 47.812211 47.459674 47.110476 46.764320 46.422306 46.084098 45.750738
45.421846 45.098404 44.779990 44.467514 44.160516 43.859832 43.564965 43.276671
42.994424 42.718895 42.449531 42.186921 41.930486 41.680734 41.437066 41.199906
40.968643 40.743617 40.524212 40.310683 40.102414 39.899580 39.701569 39.508477
39.319705 39.135273 38.954597 38.777623 38.603793 38.432982 38.264659 38.098633
37.934408 37.771731 37.610143 37.449333 37.288889
37.666667 37.852431 38.038584 38.225566 38.413708 38.603499 38.795205 38.989358
39.186156 39.386167 39.589517 39.796802 40.008075 40.223954 40.444411 40.670083
40.900859 41.137385 41.379465 41.627751 41.881956 42.142729 42.409696 42.683496
42.963664 43.250822 43.544415 43.845043 44.152060 44.466039 44.786244 45.113216
45.446129 45.785489 46.130386 46.481283 46.837191 47.198531 47.564238 47.934687
48.308747 48.686749 49.067501 49.451290 49.836874 50.224501 50.612888 51.002247
51.391269 51.780132 52.167515 52.553572 52.936979 53.317872 53.694944 54.068317
54.436713 54.800251 55.157694 55.509162 55.853472 56.190753 56.519886 56.841012
57.153085 57.456260 57.749572 58.033189 58.306232 58.568882 58.820348 59.060820
59.289597 59.506872 59.712032 59.905272 60.086063 60.254593 60.410414 60.553705
60.684093 60.801738 60.906343 60.998043 61.076610 61.142152 61.194507 61.233748
61.259781 61.272641 61.272298 61.258749 61.232027 61.192093 61.139041 61.072797
60.993521 60.901105 60.795776 60.677397 60.546266 60.402221 60.245633 60.076325
59.894745 59.700701 59.494725 59.276621 59.047003 58.805677 58.553345 58.289818
58.015888 57.731374 57.437158 57.133073 56.820085 56.498041 56.167991 55.829795
55.484575 55.132205 54.773874 54.409461 54.040211 53.666005 53.288132 52.906467
52.522329 52.135584 51.747563 51.358115 50.968574 50.578760 50.189997 49.802074
49.416287 49.032389 48.651639 48.273749 47.899928 47.529845 47.164651 46.803969
46.448883 46.098973 45.755249 45.417245 45.085893 44.760687 44.442475 44.130713
43.826161 43.528243 43.237630 42.953718 42.677088 42.407112 42.144281 41.887949
41.638519 41.395334 41.158706 40.927975 40.703365 40.484217 40.270672 40.062078
39.858492 39.659279 39.464415 39.273285 39.085790 38.901342 38.719769 38.540516
38.363342 38.187732 38.013379 37.839812 37.666667
38.044444 38.244068 38.444138 38.645043 38.847283 39.051181 39.257284 39.465848
39.677459 39.892298 40.110989 40.333631 40.560876 40.792743 41.029904 41.272291
41.520589 41.774642 42.035143 42.301842 42.575431 42.855568 43.142937 43.437098
43.738723 44.047274 44.363402 44.686472 45.017107 45.354576 45.699469 46.050958
46.409595 46.774462 47.146066 47.523398 47.906922 48.295544 48.689679 49.088156
49.491341 49.897992 50.308428 50.721348 51.137021 51.554098 51.972807 52.391762
52.811153 53.229570 53.647174 54.062547 54.475824 54.885597 55.291984 55.693601
56.090558 56.481509 56.866565 57.244433 57.615229 57.977725 58.332052 58.677057
59.012887 59.338472 59.653978 59.958426 60.251997 60.533809 60.804056 61.061951
61.307700 61.540610 61.760892 61.967944 62.161976 62.342477 62.509645 62.663054