# vtk DataFile Version 3.0
Steady-state temperature (Jacobi)
ASCII
DATASET STRUCTURED_POINTS
DIMENSIONS 181 181 1
ORIGIN 0.0 0.0 0.0
SPACING 0.05 0.05 1.0
POINT_DATA 32761
SCALARS Temperature float 1
LOOKUP_TABLE default
32.000000 32.000000 32.000000 32.000000 32.000000 32.000000 32.000000 32.000000
32.000000 32.000000 32.000000 32.000000 32.000000 32.000000 32.000000 32.000000
32.000000 32.000000 32.000000 32.000000 32.000000 32.000000 32.000000 32.000000
32.000000 32.000000 32.000000 32.000000 32.000000 32.000000 32.000000 32.000000
32.000000 32.000000 32.000000 32.000000 32.000000 32.000000 32.000000 32.000000
32.000000 32.000000 32.000000 32.000000 32.000000 32.000000 32.000000 32.000000
32.000000 32.000000 32.000000 32.000000 32.000000 32.000000 32.000000 32.000000
32.000000 32.000000 32.000000 32.000000 32.000000 32.000000 32.000000 32.000000
32.000000 32.000000 32.000000 32.000000 32.000000 32.000000 32.000000 32.000000
32.000000 32.000000 32.000000 32.000000 32.000000 32.000000 32.000000 32.000000
32.000000 32.000000 32.000000 32.000000 32.000000 32.000000 32.000000 32.000000
32.000000 32.000000 32.000000 32.000000 32.000000 32.000000 32.000000 32.000000
32.000000 32.000000 32.000000 32.000000 32.000000 32.000000 32.000000 32.000000
32.000000 32.000000 32.000000 32.000000 32.000000 32.000000 32.000000 32.000000
32.000000 32.000000 32.000000 32.000000 32.000000 32.000000 32.000000 32.000000
32.000000 32.000000 32.000000 32.000000 32.000000 32.000000 32.000000 32.000000
32.000000 32.000000 32.000000 32.000000 32.000000 32.000000 32.000000 32.000000
32.000000 32.000000 32.000000 32.000000 32.000000 32.000000 32.000000 32.000000
32.000000 32.000000 32.000000 32.000000 32.000000 32.000000 32.000000 32.000000
32.000000 32.000000 32.000000 32.000000 32.000000 32.000000 32.000000 32.000000
32.000000 32.000000 32.000000 32.000000 32.000000 32.000000 32.000000 32.000000
32.000000 32.000000 32.000000 32.000000 32.000000 32.000000 32.000000 32.000000
32.000000 32.000000 32.000000 32.000000 32.000000
32.377778 32.367335 32.356923 32.346577 32.336321 32.326196 32.316221 32.306439
32.296866 32.287546 32.278490 32.269747 32.261319 32.253259 32.245562 32.238283
32.231412 32.225005 32.219043 32.213587 32.208610 32.204174 32.200242 32.196882
32.194047 32.191805 32.190101 32.189008 32.188457 32.188526 32.189137 32.190369
32.192133 32.194512 32.197407 32.200902 32.204889 32.209456 32.214483 32.220061
32.226061 32.232576 32.239469 32.246834 32.254528 32.262646 32.271038 32.279801
32.288779 32.298072 32.307519 32.317220 32.327013 32.336999 32.347014 32.357160
32.367273 32.377454 32.387544 32.397642 32.407591 32.417493 32.427193 32.436791
32.446141 32.455340 32.464248 32.472960 32.481346 32.489496 32.497289 32.504812
32.511953 32.518795 32.525235 32.531351 32.537052 32.542406 32.547337 32.551903
32.556040 32.559798 32.563123 32.566059 32.568561 32.570663 32.572335 32.573598
32.574433 32.574853 32.574850 32.574425 32.573584 32.572316 32.570638 32.568530
32.566020 32.563078 32.559744 32.555977 32.551830 32.547253 32.542311 32.536943
32.531227 32.525095 32.518636 32.511775 32.504611 32.497064 32.489244 32.481064
32.472646 32.463898 32.454951 32.445709 32.436313 32.426663 32.416908 32.406947
32.396932 32.386764 32.376599 32.366335 32.356134 32.345894 32.335778 32.325684
32.315776 32.305952 32.296375 32.286944 32.277819 32.268901 32.260347 32.252058
32.244184 32.236631 32.229541 32.222821 32.216608 32.210809 32.205553 32.200750
32.196519 32.192773 32.189621 32.186980 32.184948 32.183444 32.182558 32.182210
32.182479 32.183291 32.184713 32.186673 32.189230 32.192314 32.195973 32.200143
32.204861 32.210065 32.215785 32.221961 32.228614 32.235687 32.243193 32.251079
32.259351 32.267957 32.276895 32.286119 32.295620 32.305353 32.315305 32.325433
32.335719 32.346124 32.356625 32.367185 32.377778
32.755556 32.734682 32.713874 32.693188 32.672697 32.652450 32.632526 32.612962
32.593847 32.575206 32.557132 32.539640 32.522829 32.506700 32.491359 32.476791
32.463109 32.450282 32.438429 32.427502 32.417627 32.408737 32.400965 32.394225
32.388654 32.384150 32.380855 32.378644 32.377668 32.377781 32.379139 32.381576
32.385252 32.389982 32.395932 32.402893 32.411039 32.420142 32.430379 32.441503
32.453696 32.466693 32.480681 32.495378 32.510976 32.527177 32.544177 32.561668
32.579847 32.598396 32.617515 32.636880 32.656693 32.676627 32.696883 32.717134
32.737585 32.757907 32.778306 32.798461 32.818575 32.838334 32.857942 32.877095
32.895992 32.914346 32.932350 32.949731 32.966677 32.982935 32.998683 33.013688
33.028119 33.041762 33.054777 33.066972 33.078491 33.089167 33.099129 33.108232
33.116590 33.124082 33.130801 33.136651 33.141708 33.145897 33.149275 33.151791
33.153480 33.154316 33.154310 33.153464 33.151764 33.149236 33.145847 33.141644
33.136574 33.130709 33.123974 33.116464 33.108087 33.098961 33.088975 33.078273
33.066724 33.054496 33.041446 33.027762 33.013287 32.998233 32.982431 32.966114
32.949103 32.931650 32.913568 32.895129 32.876138 32.856883 32.837165 32.817285
32.797042 32.776746 32.756195 32.735709 32.715083 32.694643 32.674185 32.654036
32.633992 32.614381 32.595001 32.576176 32.557705 32.539905 32.522579 32.506035
32.490078 32.475005 32.460624 32.447216 32.434597 32.423031 32.412336 32.402760
32.394126 32.386664 32.380201 32.374946 32.370735 32.367754 32.365844 32.365173
32.365588 32.367235 32.369966 32.373908 32.378920 32.385108 32.392337 32.400694
32.410051 32.420475 32.431844 32.444209 32.457454 32.471611 32.486572 32.502353
32.518851 32.536069 32.553908 32.572359 32.591329 32.610796 32.630674 32.650929
32.671480 32.692286 32.713271 32.734383 32.755556
33.133333 33.102055 33.070870 33.039880 33.009166 32.978842 32.948973 32.919685
32.891026 32.863132 32.836032 32.809874 32.784666 32.760566 32.737562 32.715818
32.695301 32.676186 32.658412 32.642165 32.627359 32.614186 32.602535 32.592606
32.584260 32.577706 32.572775 32.569684 32.568234 32.568652 32.570706 32.574632
32.580166 32.587555 32.596503 32.607262 32.619508 32.633501 32.648886 32.665931
32.684253 32.704128 32.725145 32.747587 32.771020 32.795733 32.821272 32.847929
32.875236 32.903489 32.932206 32.961689 32.991445 33.021781 33.052200 33.083010
33.113716 33.144626 33.175251 33.205899 33.236091 33.266132 33.295560 33.324675
33.353033 33.380927 33.407939 33.434352 33.459773 33.484476 33.508096 33.530892
33.552532 33.573259 33.592771 33.611295 33.628563 33.644779 33.659710 33.673537
33.686061 33.697439 33.707507 33.716392 33.723967 33.730330 33.735390 33.739212
33.741741 33.743011 33.743003 33.741717 33.739171 33.735332 33.730255 33.723873
33.716277 33.707369 33.697277 33.685872 33.673318 33.659458 33.644491 33.628235
33.610924 33.592350 33.572784 33.551996 33.530291 33.507421 33.483721 33.458928
33.433410 33.406889 33.379760 33.351737 33.323239 33.293972 33.264379 33.234157
33.203770 33.172911 33.142058 33.110903 33.079933 33.048841 33.018118 32.987459
32.957356 32.927506 32.898398 32.869730 32.841984 32.814863 32.788836 32.763610
32.739637 32.716631 32.695024 32.674534 32.655573 32.637864 32.621792 32.607089
32.594112 32.582601 32.572884 32.564707 32.558370 32.553628 32.550747 32.549493
32.550101 32.552346 32.556432 32.562142 32.569651 32.578751 32.589588 32.601962
32.615991 32.631485 32.648533 32.666957 32.686818 32.707946 32.730380 32.753959
32.778699 32.804445 32.831196 32.858805 32.887249 32.916393 32.946196 32.976530
33.007341 33.038509 33.069965 33.101601 33.133333
33.511111 33.469463 33.427946 33.386675 33.345798 33.305410 33.265673 33.226661
33.188553 33.151397 33.115386 33.080545 33.047076 33.014980 32.984471 32.955519
32.928351 32.902907 32.879425 32.857810 32.838313 32.820804 32.805545 32.792370
32.781551 32.772884 32.766654 32.762614 32.761062 32.761710 32.764868 32.770205
32.778043 32.788007 32.800433 32.814903 32.831763 32.850557 32.871638 32.894511
32.919542 32.946197 32.974850 33.004936 33.036837 33.069957 33.104686 33.140404
33.177507 33.215354 33.254347 33.293833 33.334217 33.374837 33.416102 33.457349
33.498988 33.540361 33.581877 33.622890 33.663808 33.704001 33.743873 33.782818
33.821231 33.858536 33.895118 33.930433 33.964855 33.997875 34.029852 34.060316
34.089608 34.117301 34.143709 34.168453 34.191821 34.213477 34.233680 34.252142
34.269088 34.284277 34.297898 34.309758 34.320006 34.328498 34.335343 34.340443
34.343865 34.345559 34.345549 34.343833 34.340389 34.335266 34.328398 34.319880
34.309604 34.297715 34.284061 34.268836 34.251851 34.233346 34.213094 34.191385
34.167958 34.143149 34.116667 34.088895 34.059514 34.028952 33.996867 33.963728
33.929176 33.893718 33.856980 33.819504 33.780904 33.741756 33.701663 33.661229
33.620052 33.578757 33.536937 33.495237 33.453247 33.411623 33.369954 33.328902
33.288057 33.248080 33.208566 33.170165 33.132478 33.096142 33.060762 33.026956
32.994337 32.963498 32.934058 32.906583 32.880700 32.856942 32.834945 32.815205
32.797370 32.781898 32.768446 32.757432 32.748524 32.742099 32.737838 32.736076
32.736505 32.739418 32.744520 32.752064 32.761766 32.773838 32.788011 32.804456
32.822916 32.843528 32.866045 32.890567 32.916861 32.944994 32.974744 33.006147
33.038993 33.073289 33.108835 33.145614 33.183437 33.222261 33.261910 33.302320
33.343326 33.384843 33.426721 33.468856 33.511111
33.888889 33.836924 33.785113 33.733633 33.682615 33.632254 33.582657 33.534037
33.486473 33.440197 33.395256 33.351898 33.310140 33.270244 33.232191 33.196259
33.162392 33.130883 33.101633 33.074952 33.050698 33.029193 33.010253 32.994214
32.980841 32.970488 32.962870 32.958355 32.956606 32.958006 32.962165 32.969483
32.979515 32.992674 33.008464 33.027310 33.048667 33.072971 33.099625 33.129080
33.160691 33.194920 33.231077 33.269637 33.309869 33.352256 33.396034 33.441696
33.488449 33.536791 33.585911 33.636312 33.687168 33.738987 33.790939 33.843532
33.895940 33.948672 34.000911 34.053167 34.104639 34.155833 34.205975 34.255564
34.303857 34.351345 34.397322 34.442267 34.485516 34.527530 34.567695 34.606449
34.643231 34.678451 34.711603 34.743068 34.772395 34.799928 34.825277 34.848746
34.870004 34.889310 34.906393 34.921466 34.934318 34.945110 34.953692 34.960173
34.964463 34.966617 34.966603 34.964423 34.960106 34.953596 34.944984 34.934160
34.921274 34.906164 34.889040 34.869689 34.848382 34.824859 34.799449 34.771849
34.742449 34.710902 34.677659 34.642339 34.605446 34.566570 34.526270 34.484108
34.440696 34.395573 34.349400 34.301698 34.253172 34.203328 34.152910 34.101416
34.049619 33.997012 33.944393 33.891252 33.838405 33.785340 33.732883 33.680524
33.629092 33.578078 33.528306 33.479273 33.431788 33.385354 33.340761 33.297518
33.256388 33.216888 33.179747 33.144493 33.111817 33.081256 33.053456 33.027970
33.005395 32.985297 32.968223 32.953752 32.942383 32.933706 32.928168 32.925375
32.925722 32.928829 32.935038 32.943986 32.955965 32.970625 32.988210 33.008385
33.031345 33.056773 33.084817 33.115175 33.147953 33.182862 33.219970 33.259001
33.299985 33.342662 33.387027 33.432835 33.480048 33.528436 33.577931 33.628321
33.679510 33.731301 33.783575 33.836151 33.888889
34.266667 34.204441 34.142415 34.080762 34.019705 33.959390 33.900062 33.841835
33.784975 33.729562 33.675884 33.623981 33.574159 33.526421 33.481090 33.438123
33.397864 33.360222 33.325559 33.293732 33.265123 33.239534 33.217365 33.198363
33.182945 33.170798 33.162358 33.157250 33.155928 33.157954 33.163801 33.172965
33.185937 33.202150 33.222110 33.245187 33.271902 33.301565 33.334711 33.370590
33.409753 33.451393 33.496073 33.542937 33.592559 33.644039 33.697961 33.753388
33.810911 33.869564 33.929948 33.991073 34.053547 34.116369 34.180151 34.243890
34.308199 34.372084 34.436157 34.499443 34.562550 34.624529 34.685983 34.745997
34.805166 34.862616 34.918930 34.973283 35.026240 35.077032 35.126198 35.173032
35.218045 35.260594 35.301156 35.339155 35.375028 35.408270 35.439272 35.467598
35.493591 35.516888 35.537774 35.555959 35.571669 35.584688 35.595178 35.602995
35.608239 35.610836 35.610820 35.608191 35.602915 35.595063 35.584537 35.571480
35.555728 35.537499 35.516564 35.493214 35.467162 35.438770 35.407696 35.374374
35.338412 35.300315 35.259645 35.216975 35.171829 35.124849 35.075520 35.024551
34.971399 34.916831 34.860283 34.802575 34.743126 34.682807 34.621021 34.558683
34.495185 34.431478 34.366949 34.302574 34.237737 34.173433 34.109045 34.045574
33.982409 33.920548 33.859382 33.799900 33.741498 33.685146 33.630247 33.577739
33.527039 33.479046 33.433186 33.390317 33.349875 33.312669 33.278149 33.247067
33.218890 33.194311 33.172812 33.155025 33.140448 33.129652 33.122153 33.118455
33.118095 33.121513 33.128264 33.138727 33.152472 33.169822 33.190364 33.214360
33.241417 33.271742 33.304961 33.341224 33.380177 33.421922 33.466120 33.512826
33.561720 33.612814 33.665804 33.720663 33.777104 33.835064 33.894274 33.954636
34.015902 34.077943 34.140530 34.203507 34.266667
34.644444 34.572039 34.499853 34.428135 34.357072 34.286941 34.217894 34.150231
34.084068 34.019729 33.957286 33.897088 33.839160 33.783874 33.731206 33.681548
33.634823 33.591446 33.551280 33.514762 33.481696 33.452538 33.427027 33.405641
33.388051 33.374756 33.365357 33.360373 33.359331 33.362772 33.370149 33.382023
33.397769 33.417970 33.441926 33.470239 33.502133 33.538229 33.577680 33.621123
33.667643 33.717893 33.770896 33.827317 33.886125 33.947995 34.011849 34.078374
34.146449 34.216773 34.288196 34.361422 34.435281 34.510487 34.585860 34.662116
34.738081 34.814471 34.890127 34.965763 35.040248 35.114290 35.186794 35.258460
35.328238 35.396817 35.463201 35.528059 35.590459 35.651047 35.708957 35.764806
35.817803 35.868526 35.916264 35.961550 36.003754 36.043361 36.079822 36.113565
36.144126 36.171872 36.196421 36.218076 36.236539 36.252039 36.264366 36.273673
36.279834 36.282926 36.282908 36.279778 36.273579 36.264232 36.251863 36.236318
36.217807 36.196101 36.171494 36.143685 36.113056 36.079236 36.042691 36.002991
35.960684 35.915283 35.867418 35.816555 35.763403 35.707383 35.649284 35.588489
35.525861 35.460753 35.394095 35.325217 35.255111 35.183089 35.110199 35.035736
34.960797 34.884668 34.808481 34.731519 34.654939 34.578022 34.501942 34.425981
34.351314 34.277230 34.204895 34.133603 34.064504 33.996898 33.931904 33.868835
33.808770 33.751032 33.696653 33.644969 33.596956 33.551966 33.510912 33.473161
33.439561 33.409497 33.383745 33.361707 33.344090 33.330313 33.321009 33.315619
33.314699 33.317712 33.325142 33.336472 33.352113 33.371571 33.395187 33.422488
33.453748 33.488515 33.526999 33.568770 33.613977 33.662211 33.713564 33.767648
33.824503 33.883760 33.945410 34.009107 34.074796 34.142150 34.211076 34.281268
34.352593 34.424771 34.497633 34.570924 34.644444
35.022222 34.939716 34.857480 34.775748 34.694823 34.614901 34.536315 34.459219
34.383974 34.310688 34.239749 34.171214 34.105499 34.042605 33.982973 33.926546
33.873788 33.824579 33.779409 33.738087 33.701131 33.668276 33.640062 33.616151
33.597106 33.582509 33.572948 33.567921 33.568040 33.572718 33.582591 33.596984
33.616557 33.640547 33.669637 33.702977 33.741269 33.783582 33.830636 33.881419
33.936669 33.995298 34.058062 34.123803 34.193291 34.265308 34.340637 34.418009
34.498217 34.579953 34.664019 34.749078 34.835941 34.923253 35.011832 35.100321
35.189540 35.278142 35.366948 35.454637 35.542023 35.627823 35.712844 35.795852
35.877641 35.957035 36.034812 36.109864 36.182944 36.253020 36.320816 36.385382
36.447402 36.506016 36.561863 36.614172 36.663530 36.709261 36.751889 36.790836
36.826558 36.858572 36.887262 36.912241 36.933814 36.951691 36.966092 36.976825
36.984022 36.987588 36.987567 36.983959 36.976717 36.965939 36.951490 36.933562
36.911934 36.886896 36.858140 36.826055 36.790254 36.751221 36.708495 36.662658
36.613182 36.560742 36.504751 36.445976 36.383778 36.319017 36.251006 36.180693
36.107352 36.032015 35.953925 35.874188 35.792026 35.708611 35.623147 35.536867
35.448961 35.360710 35.271297 35.182041 35.092119 35.002875 34.913488 34.825312
34.737527 34.651487 34.566378 34.483536 34.402158 34.323550 34.246919 34.173532
34.102607 34.035361 33.971025 33.910756 33.853802 33.801250 33.752364 33.708160
33.667919 33.632577 33.601436 33.575348 33.553637 33.537070 33.524994 33.518091
33.515730 33.518507 33.525817 33.538172 33.554990 33.576702 33.602751 33.633488
33.668381 33.707707 33.750957 33.798337 33.849362 33.904171 33.962303 34.023833
34.088326 34.155797 34.225835 34.298402 34.373111 34.449873 34.528327 34.608340
34.689575 34.771857 34.854879 34.938427 35.022222
35.400000 35.307500 35.215287 35.123686 35.032942 34.943415 34.855305 34.769006
34.684668 34.602716 34.523244 34.446709 34.373146 34.303041 34.236364 34.173629
34.114736 34.060229 34.009933 33.964418 33.923432 33.887572 33.856500 33.830842
33.810171 33.795141 33.785232 33.781125 33.782205 33.789180 33.801336 33.819408
33.842582 33.871619 33.905606 33.945327 33.989774 34.039750 34.094154 34.153810
34.217529 34.286152 34.358408 34.435155 34.515047 34.598959 34.685478 34.775494
34.867542 34.962522 35.058930 35.157675 35.257229 35.358506 35.459970 35.562539
35.664680 35.767314 35.868930 35.970446 36.070386 36.169662 36.266846 36.362842
36.456283 36.548056 36.636866 36.723578 36.806981 36.887908 36.965240 37.039772
37.110480 37.178114 37.241753 37.302089 37.358307 37.411038 37.459571 37.504465
37.545119 37.582013 37.614654 37.643434 37.667972 37.688565 37.704942 37.717305
37.725489 37.729597 37.729573 37.725418 37.717184 37.704770 37.688339 37.667688
37.643089 37.614242 37.581528 37.544554 37.503810 37.458819 37.410177 37.357327
37.300976 37.240492 37.176691 37.108876 37.037969 36.963217 36.885643 36.804449
36.720753 36.633719 36.544557 36.452400 36.358539 36.262085 36.164403 36.064587
35.964062 35.861913 35.759614 35.656244 35.553312 35.449894 35.347521 35.245272
35.144681 35.044832 34.947251 34.851027 34.757663 34.666257 34.578272 34.492820
34.411311 34.332871 34.258847 34.188379 34.122743 34.061097 34.004633 33.952529
33.905892 33.863919 33.827623 33.796227 33.770648 33.750132 33.735499 33.726021
33.722421 33.723998 33.731377 33.743885 33.762055 33.785240 33.813881 33.847361
33.886031 33.929303 33.977446 34.029899 34.086851 34.147769 34.212770 34.281346
34.353547 34.428892 34.507367 34.588518 34.672273 34.758206 34.846192 34.935833
35.026954 35.119190 35.212320 35.306011 35.400000
35.777778 35.675386 35.573338 35.471932 35.371554 35.272453 35.175054 35.079552
34.986409 34.895761 34.808105 34.723514 34.642517 34.565118 34.491880 34.422732
34.358267 34.298333 34.243557 34.193701 34.149420 34.110386 34.077286 34.049693
34.028327 34.012659 34.003438 34.000031 34.003216 34.012252 34.027947 34.049448
34.077591 34.111412 34.151775 34.197605 34.249789 34.307146 34.370587 34.438826
34.512796 34.591114 34.674730 34.762175 34.854416 34.949905 35.049622 35.151956
35.257899 35.365787 35.476624 35.588709 35.703054 35.817940 35.934385 36.050666
36.167804 36.284092 36.400552 36.515507 36.629976 36.742330 36.853579 36.962159
37.069064 37.172807 37.274361 37.372325 37.467648 37.559024 37.647365 37.731472
37.812208 37.888489 37.961121 38.029136 38.093273 38.152684 38.208034 38.258594
38.304943 38.346476 38.383680 38.416069 38.444031 38.467201 38.485861 38.499768
38.509092 38.513713 38.513687 38.509013 38.499633 38.485670 38.466950 38.443716
38.415686 38.383222 38.345938 38.304315 38.257867 38.207199 38.151729 38.092184
38.027899 37.959721 37.886908 37.810427 37.729469 37.645118 37.556508 37.464835
37.369187 37.270865 37.168920 37.064750 36.957378 36.848290 36.736487 36.623533
36.508414 36.392756 36.275537 36.158432 36.040415 35.923191 35.805736 35.689770
35.574272 35.460960 35.348820 35.239550 35.132144 35.028266 34.926921 34.829720
34.735683 34.646357 34.560776 34.480409 34.404310 34.333860 34.268130 34.208410
34.153791 34.105460 34.062534 34.026092 33.995278 33.971063 33.952617 33.940802
33.934817 33.935416 33.941827 33.954698 33.973286 33.998136 34.028537 34.064932
34.106642 34.154015 34.206403 34.264062 34.326377 34.393517 34.464899 34.540613
34.620105 34.703391 34.789950 34.879729 34.972235 35.067357 35.164633 35.263893
35.364708 35.466856 35.569945 35.673704 35.777778
36.155556 36.043406 35.931614 35.820585 35.710625 35.602184 35.495511 35.391097
35.289131 35.190143 35.094252 35.002029 34.913519 34.829328 34.749422 34.674445
34.604274 34.539589 34.480175 34.426747 34.378991 34.337657 34.302327 34.273784
34.251500 34.236293 34.227519 34.226030 34.231063 34.243501 34.262461 34.288856
34.321679 34.361875 34.408312 34.461962 34.521573 34.588141 34.660296 34.739059
34.822948 34.913004 35.007641 35.107918 35.212159 35.321436 35.433993 35.550917
35.670387 35.793501 35.918387 36.046155 36.174902 36.305744 36.436767 36.569092
36.700811 36.833049 36.963925 37.094559 37.223118 37.350716 37.475582 37.598819
37.718733 37.836411 37.950250 38.061311 38.168098 38.271633 38.370535 38.465784
38.556118 38.642460 38.723678 38.800627 38.872307 38.939494 39.001320 39.058475
39.110225 39.157160 39.198682 39.235274 39.266471 39.292643 39.313458 39.329164
39.339564 39.344783 39.344754 39.339477 39.329017 39.313248 39.292368 39.266126
39.234853 39.198179 39.156568 39.109534 39.057676 39.000401 38.938443 38.871109
38.799268 38.722139 38.640722 38.554159 38.463581 38.368064 38.268866 38.165004
38.057860 37.946406 37.832136 37.713988 37.593560 37.469764 37.344291 37.216032
37.086758 36.955350 36.823640 36.690503 36.557816 36.424454 36.292320 36.160290
36.030276 35.901159 35.774839 35.650205 35.529126 35.410503 35.296155 35.184995
35.078779 34.976433 34.879634 34.787326 34.701094 34.619900 34.545227 34.476060
34.413773 34.357372 34.308116 34.265038 34.229278 34.199898 34.177914 34.162420
34.154311 34.152713 34.158400 34.170532 34.189765 34.215294 34.247661 34.286095
34.331031 34.381731 34.438528 34.500718 34.568535 34.641312 34.719190 34.801537
34.888411 34.979210 35.073916 35.171962 35.273257 35.377269 35.483841 35.592477
35.702959 35.814830 35.927815 36.041499 36.155556
36.533333 36.411549 36.290187 36.169612 36.050299 35.932553 35.816895 35.703566
35.593133 35.485764 35.382070 35.282141 35.186628 35.095539 35.009565 34.928623
34.853441 34.783840 34.720587 34.663397 34.613076 34.569227 34.532694 34.502962
34.480913 34.465906 34.458862 34.459010 34.467307 34.482849 34.506627 34.537602
34.576798 34.623039 34.677379 34.738508 34.807507 34.882933 34.965892 35.054816
35.150832 35.252252 35.360225 35.472953 35.591602 35.714277 35.842159 35.973274
36.108814 36.246742 36.388260 36.531286 36.677033 36.823394 36.971588 37.119506
37.268370 37.416092 37.563895 37.709730 37.854816 37.997167 38.137992 38.275384
38.410539 38.541644 38.669872 38.793521 38.913732 39.028923 39.140193 39.246093
39.347666 39.443601 39.534874 39.620319 39.700834 39.775395 39.844811 39.908205
39.966285 40.018320 40.064905 40.105458 40.140450 40.169446 40.192788 40.210186
40.221848 40.227628 40.227597 40.221752 40.210025 40.192559 40.169145 40.140073
40.104999 40.064357 40.017675 39.965532 39.907335 39.843810 39.774250 39.699529
39.618837 39.533196 39.441705 39.345530 39.243691 39.137499 39.025906 38.910359
38.789758 38.665680 38.536983 38.405364 38.269649 38.131647 37.990158 37.847087
37.701221 37.554542 37.405829 37.257126 37.107207 36.958157 36.808751 36.661094
36.513965 36.369467 36.226385 36.086799 35.949504 35.816535 35.686700 35.561971
35.441167 35.326183 35.215853 35.111975 35.013403 34.921827 34.836123 34.757862
34.685944 34.621815 34.564401 34.515017 34.472619 34.438390 34.411314 34.392441
34.380791 34.377278 34.380957 34.392614 34.411338 34.437788 34.471092 34.511786
34.559036 34.613261 34.673664 34.740556 34.813178 34.891736 34.975509 35.064606
35.158345 35.256746 35.359163 35.465535 35.575254 35.688182 35.803751 35.921754
36.041665 36.163210 36.285909 36.409428 36.533333
36.911111 36.779854 36.649029 36.519128 36.390521 36.263753 36.139126 36.017235
35.898308 35.782990 35.671425 35.564306 35.461689 35.364310 35.272132 35.185933
35.105573 35.031874 34.964584 34.904569 34.851456 34.806154 34.768165 34.738439
34.716347 34.702876 34.697260 34.700527 34.711766 34.732043 34.760299 34.797637
34.842848 34.897068 34.958940 35.029630 35.107633 35.194143 35.287511 35.388957
35.496696 35.611967 35.732862 35.860638 35.993271 36.132035 36.274810 36.422880
36.574047 36.729607 36.887301 37.048435 37.210712 37.375445 37.540324 37.706668
37.872176 38.038169 38.202382 38.366133 38.527214 38.686940 38.843179 38.997235
39.147075 39.293982 39.436038 39.574498 39.707573 39.836480 39.959567 40.078002
40.190282 40.297508 40.398333 40.493781 40.582662 40.665909 40.742492 40.813239
40.877281 40.935328 40.986672 41.031895 41.070447 41.102774 41.128485 41.147879
41.160722 41.167166 41.167131 41.160619 41.147705 41.128237 41.102449 41.070039
41.031398 40.986079 40.934629 40.876466 40.812297 40.741409 40.664669 40.581249
40.492176 40.396516 40.295455 40.187969 40.075402 39.956650 39.833212 39.703921
39.570422 39.431498 39.288933 39.141470 38.991024 38.836307 38.679349 38.518843
38.356917 38.192252 38.027053 37.859997 37.693346 37.525776 37.359583 37.193446
37.029672 36.866944 36.707556 36.550199 36.397131 36.247053 36.102162 35.961174
35.826206 35.695986 35.572538 35.454604 35.344097 35.239779 35.143437 35.053858
34.972693 34.898754 34.833553 34.775930 34.727251 34.686390 34.654564 34.630681
34.615813 34.608903 34.610879 34.620723 34.639220 34.665395 34.699894 34.741783
34.791579 34.848389 34.912606 34.983378 35.060982 35.144607 35.234422 35.329656
35.430378 35.535858 35.646071 35.760330 35.878521 36.000003 36.124581 36.251658
36.380967 36.511958 36.644295 36.777478 36.911111
37.288889 37.148303 37.008221 36.869083 36.731455 36.595703 36.462451 36.331989
36.204995 36.081673 35.962753 35.848348 35.739238 35.635436 35.537770 35.446146
35.361439 35.283439 35.213067 35.149990 35.095174 35.048152 35.009938 34.979923
34.959166 34.946912 34.944259 34.950301 34.966178 34.990824 35.025419 35.068734
35.121988 35.183786 35.255381 35.335217 35.424576 35.521743 35.628024 35.741555
35.863663 35.992340 36.128932 36.271300 36.420806 36.575194 36.735841 36.900391
37.070235 37.242940 37.419905 37.598644 37.780565 37.963153 38.147822 38.332057
38.517275 38.700987 38.884610 39.065708 39.245694 39.422207 39.596655 39.766772
39.933953 40.096050 40.254433 40.407090 40.555356 40.697368 40.834412 40.964785
41.089714 41.207659 41.319772 41.424685 41.523459 41.614898 41.699960 41.777622
41.848720 41.912407 41.969385 42.018979 42.061749 42.097189 42.125705 42.146962
42.161205 42.168268 42.168231 42.161094 42.146775 42.125439 42.096839 42.061310
42.018445 41.968747 41.911655 41.847843 41.776608 41.698794 41.613564 41.521938
41.422958 41.317816 41.205450 41.087225 40.961987 40.831272 40.693851 40.551425
40.402703 40.249546 40.090615 39.927919 39.760085 39.589256 39.414034 39.236681
39.055785 38.873703 38.689017 38.504161 38.317712 38.132157 37.946074 37.761973
37.578441 37.397984 37.219195 37.044555 36.872664 36.705951 36.543026 36.386242
36.234222 36.089223 35.949881 35.818338 35.693249 35.576626 35.467143 35.366671
35.273909 35.190575 35.115396 35.049935 34.992950 34.945842 34.907404 34.878879
34.859095 34.849136 34.847871 34.856228 34.873117 34.899315 34.933777 34.977134
35.028386 35.088024 35.155096 35.229961 35.311712 35.400586 35.495720 35.597239
35.704326 35.816998 35.934484 36.056704 36.182934 36.313004 36.446236 36.582379
36.720804 36.861185 37.002945 37.145686 37.288889
37.666667 37.516940 37.367726 37.219607 37.073023 36.928620 36.786757 36.648140
36.513040 36.382223 36.255863 36.134782 36.019051 35.909544 35.806222 35.710011
35.620749 35.539415 35.465717 35.400684 35.343887 35.296401 35.257651 35.228762
35.209001 35.199541 35.199486 35.210053 35.230178 35.261121 35.301643 35.353045
35.413909 35.485574 35.566445 35.657892 35.758147 35.868605 35.987330 36.115742
36.251740 36.396765 36.548566 36.708601 36.874483 37.047681 37.225693 37.410000
37.598002 37.791190 37.986893 38.186610 38.387625 38.591444 38.795337 39.000812
39.205154 39.409876 39.612304 39.813951 40.012216 40.208606 40.400616 40.589745
40.773607 40.953682 41.127724 41.297184 41.459971 41.617497 41.767837 41.912348
42.049284 42.179927 42.302718 42.418850 42.526950 42.628106 42.721134 42.807002
42.884710 42.955093 43.017335 43.072123 43.118824 43.157963 43.189091 43.212563
43.228108 43.235906 43.235867 43.227989 43.212362 43.188806 43.157589 43.118355
43.071551 43.016652 42.954288 42.883772 42.805916 42.719886 42.626678 42.525322
42.417002 42.300625 42.177563 42.046619 41.909352 41.764475 41.613731 41.455761
41.292486 41.122490 40.947862 40.767145 40.582583 40.392692 40.199852 40.002562
39.803322 39.600621 39.397054 39.191106 38.985446 38.778556 38.573148 38.367709
38.164966 37.963409 37.765751 37.570491 37.380295 37.193672 37.013219 36.837454
36.668879 36.506025 36.351278 36.203182 36.063992 35.932267 35.810114 35.696115
35.592214 35.497021 35.412312 35.336725 35.271864 35.216402 35.171766 35.136669
35.112364 35.097602 35.093467 35.098754 35.114380 35.139186 35.173926 35.217493
35.270485 35.331843 35.402022 35.480009 35.566124 35.659405 35.760042 35.867122
35.980718 36.099967 36.224830 36.354496 36.488826 36.627058 36.768961 36.913826
37.061336 37.210838 37.361935 37.514034 37.666667
38.044444 37.885742 37.727633 37.570634 37.415411 37.262396 37.112322 36.965533
36.822825 36.684442 36.551243 36.423367 36.301729 36.186352 36.078211 35.977203
35.884359 35.799441 35.723535 35.656259 35.598752 35.550479 35.512631 35.484510
35.467358 35.460305 35.464643 35.479321 35.505678 35.542480 35.591106 35.650133
35.720981 35.802033 35.894746 35.997311 36.111214 36.234460 36.368561 36.511339
36.664328 36.825179 36.995442 37.172613 37.358254 37.549724 37.748595 37.952107
38.161843 38.374951 38.593019 38.813135 39.036892 39.261346 39.488094 39.714193
39.941245 40.166337 40.391074 40.612609 40.832545 41.048126 41.260952 41.468387
41.672017 41.869350 42.061949 42.247485 42.427486 42.599800 42.765908 42.923845
43.075026 43.217684 43.353150 43.479856 43.599033 43.709314 43.811811 43.905358