<?xml version="1.0"?>
<VTKFile type="ImageData" version="0.1" byte_order="LittleEndian">
  <ImageData WholeExtent="0 180 0 180 0 0" Origin="0.0 0.0 0.0" Spacing="0.05 0.05 1">
    <Piece Extent="0 180 0 180 0 0">
      <PointData Scalars="Temperature">
        <DataArray type="Float32" Name="Temperature" format="ascii">
32.000000 32.000000 32.000000 32.000000 32.000000 32.000000 32.000000 32.000000 32.000000 32.000000 32.000000 32.000000 32.000000 32.000000 32.000000 32.000000 32.000000 32.000000 32.000000 32.000000 32.000000 32.000000 32.000000 32.000000 32.000000 32.000000 32.000000 32.000000 32.000000 32.000000 32.000000 32.000000 32.000000 32.000000 32.000000 32.000000 32.000000 32.000000 32.000000 32.000000 32.000000 32.000000 32.000000 32.000000 32.000000 32.000000 32.000000 32.000000 32.000000 32.000000 32.000000 32.000000 32.000000 32.000000 32.000000 32.000000 32.000000 32.000000 32.000000 32.000000 32.000000 32.000000 32.000000 32.000000 32.000000 32.000000 32.000000 32.000000 32.000000 32.000000 32.000000 32.000000 32.000000 32.000000 32.000000 32.000000 32.000000 32.000000 32.000000 32.000000 32.000000 32.000000 32.000000 32.000000 32.000000 32.000000 32.000000 32.000000 32.000000 32.000000 32.000000 32.000000 32.000000 32.000000 32.000000 32.000000 32.000000 32.000000 32.000000 32.000000 32.000000 32.000000 32.000000 32.000000 32.000000 32.000000 32.000000 32.000000 32.000000 32.000000 32.000000 32.000000 32.000000 32.000000 32.000000 32.000000 32.000000 32.000000 32.000000 32.000000 32.000000 32.000000 32.000000 32.000000 32.000000 32.000000 32.000000 32.000000 32.000000 32.000000 32.000000 32.000000 32.000000 32.000000 32.000000 32.000000 32.000000 32.000000 32.000000 32.000000 32.000000 32.000000 32.000000 32.000000 32.000000 32.000000 32.000000 32.000000 32.000000 32.000000 32.000000 32.000000 32.000000 32.000000 32.000000 32.000000 32.000000 32.000000 32.000000 32.000000 32.000000 32.000000 32.000000 32.000000 32.000000 32.000000 32.000000 32.000000 32.000000 32.000000 32.000000 32.000000 32.000000 32.000000 32.000000 32.000000 32.000000 32.000000 32.000000 32.000000 32.000000
32.377778 32.357485 32.337284 32.317265 32.297517 32.278123 32.259165 32.240716 32.222843 32.205607 32.189061 32.173249 32.158207 32.143962 32.130533 32.117930 32.106158 32.095210 32.085076 32.075737 32.067171 32.059350 32.052241 32.045810 32.040018 32.034827 32.030196 32.026084 32.022450 32.019256 32.016460 32.014028 32.011921 32.010108 32.008555 32.007236 32.006121 32.005188 32.004411 32.003775 32.003256 32.002844 32.002519 32.002274 32.002092 32.001970 32.001892 32.001860 32.001858 32.001890 32.001941 32.002019 32.002108 32.002216 32.002331 32.002460 32.002590 32.002731 32.002869 32.003016 32.003156 32.003303 32.003442 32.003584 32.003717 32.003851 32.003975 32.004100 32.004213 32.004325 32.004427 32.004527 32.004615 32.004702 32.004778 32.004851 32.004915 32.004975 32.005027 32.005076 32.005117 32.005155 32.005187 32.005215 32.005238 32.005257 32.005272 32.005284 32.005291 32.005294 32.005294 32.005291 32.005284 32.005272 32.005257 32.005238 32.005215 32.005187 32.005155 32.005117 32.005076 32.005027 32.004975 32.004915 32.004851 32.004778 32.004702 32.004615 32.004526 32.004427 32.004325 32.004213 32.004099 32.003974 32.003850 32.003715 32.003582 32.003439 32.003299 32.003152 32.003009 32.002861 32.002720 32.002575 32.002441 32.002307 32.002186 32.002069 32.001970 32.001880 32.001812 32.001761 32.001739 32.001743 32.001786 32.001866 32.001998 32.002183 32.002438 32.002766 32.003187 32.003710 32.004354 32.005134 32.006074 32.007193 32.008518 32.010074 32.011892 32.014001 32.016438 32.019236 32.022434 32.026069 32.030183 32.034816 32.040009 32.045802 32.052235 32.059345 32.067167 32.075734 32.085073 32.095208 32.106156 32.117929 32.130531 32.143961 32.158206 32.173248 32.189061 32.205607 32.222843 32.240715 32.259165 32.278123 32.297516 32.317265 32.337283 32.357485 32.377778
32.755556 32.714969 32.674567 32.634530 32.595033 32.556247 32.518330 32.481432 32.445686 32.411215 32.378123 32.346498 32.316414 32.287924 32.261066 32.235861 32.212316 32.190421 32.170153 32.151476 32.134345 32.118702 32.104485 32.091623 32.080041 32.069659 32.060398 32.052174 32.044909 32.038520 32.032932 32.028067 32.023857 32.020232 32.017132 32.014494 32.012270 32.010404 32.008859 32.007586 32.006559 32.005735 32.005096 32.004606 32.004256 32.004012 32.003873 32.003807 32.003821 32.003884 32.004007 32.004161 32.004361 32.004577 32.004828 32.005085 32.005367 32.005648 32.005948 32.006239 32.006544 32.006835 32.007135 32.007417 32.007704 32.007971 32.008239 32.008486 32.008731 32.008954 32.009174 32.009371 32.009563 32.009733 32.009898 32.010043 32.010181 32.010300 32.010413 32.010509 32.010599 32.010674 32.010742 32.010798 32.010847 32.010886 32.010917 32.010940 32.010955 32.010963 32.010963 32.010955 32.010940 32.010917 32.010886 32.010847 32.010798 32.010742 32.010674 32.010599 32.010509 32.010413 32.010300 32.010180 32.010042 32.009898 32.009733 32.009563 32.009370 32.009173 32.008954 32.008730 32.008485 32.008238 32.007969 32.007701 32.007413 32.007129 32.006828 32.006534 32.006226 32.005931 32.005626 32.005339 32.005048 32.004780 32.004516 32.004283 32.004064 32.003884 32.003729 32.003627 32.003566 32.003574 32.003644 32.003804 32.004054 32.004425 32.004922 32.005580 32.006411 32.007456 32.008736 32.010297 32.012170 32.014408 32.017052 32.020163 32.023795 32.028014 32.032884 32.038480 32.044873 32.052144 32.060371 32.069637 32.080021 32.091607 32.104472 32.118691 32.134335 32.151469 32.170146 32.190416 32.212312 32.235858 32.261063 32.287921 32.316412 32.346497 32.378122 32.411214 32.445686 32.481431 32.518330 32.556246 32.595033 32.634529 32.674567 32.714969 32.755556
33.133333 33.072454 33.011851 32.951794 32.892550 32.834370 32.777495 32.722148 32.668530 32.616823 32.567185 32.519748 32.474621 32.431886 32.391600 32.353794 32.318476 32.285634 32.255232 32.227218 32.201521 32.178059 32.156734 32.137443 32.120070 32.104500 32.090610 32.078279 32.067383 32.057805 32.049424 32.042135 32.035822 32.030394 32.025747 32.021803 32.018470 32.015687 32.013373 32.011484 32.009947 32.008734 32.007782 32.007074 32.006555 32.006219 32.006018 32.005954 32.005983 32.006116 32.006309 32.006581 32.006889 32.007257 32.007642 32.008073 32.008506 32.008974 32.009432 32.009916 32.010381 32.010863 32.011320 32.011787 32.012225 32.012666 32.013075 32.013483 32.013856 32.014224 32.014558 32.014884 32.015175 32.015458 32.015707 32.015947 32.016156 32.016354 32.016524 32.016684 32.016819 32.016944 32.017047 32.017139 32.017214 32.017277 32.017325 32.017363 32.017386 32.017398 32.017398 32.017386 32.017363 32.017325 32.017277 32.017214 32.017139 32.017047 32.016944 32.016819 32.016684 32.016524 32.016354 32.016155 32.015946 32.015707 32.015457 32.015175 32.014883 32.014557 32.014223 32.013854 32.013481 32.013072 32.012663 32.012220 32.011781 32.011312 32.010852 32.010366 32.009896 32.009407 32.008941 32.008463 32.008018 32.007571 32.007166 32.006773 32.006434 32.006124 32.005883 32.005692 32.005593 32.005569 32.005667 32.005876 32.006245 32.006774 32.007515 32.008478 32.009721 32.011269 32.013186 32.015510 32.018317 32.021660 32.025625 32.030281 32.035727 32.042047 32.049351 32.057739 32.067327 32.078230 32.090569 32.104464 32.120041 32.137417 32.156713 32.178041 32.201507 32.227206 32.255222 32.285626 32.318470 32.353788 32.391595 32.431883 32.474619 32.519746 32.567183 32.616821 32.668529 32.722147 32.777495 32.834370 32.892549 32.951794 33.011851 33.072454 33.133333
33.511111 33.429939 33.349134 33.269059 33.190066 33.112494 33.036661 32.962864 32.891374 32.822431 32.756247 32.692999 32.632830 32.575850 32.522135 32.471728 32.424639 32.380850 32.340316 32.302964 32.268704 32.237422 32.208993 32.183272 32.160113 32.139356 32.120841 32.104403 32.089884 32.077117 32.065955 32.056240 32.047839 32.040608 32.034431 32.029180 32.024761 32.021061 32.018007 32.015499 32.013487 32.011883 32.010657 32.009729 32.009087 32.008659 32.008447 32.008384 32.008485 32.008686 32.009012 32.009400 32.009883 32.010401 32.010991 32.011592 32.012249 32.012899 32.013590 32.014261 32.014960 32.015628 32.016313 32.016960 32.017615 32.018226 32.018837 32.019401 32.019959 32.020468 32.020967 32.021416 32.021853 32.022242 32.022616 32.022944 32.023258 32.023530 32.023786 32.024004 32.024207 32.024378 32.024533 32.024659 32.024771 32.024858 32.024930 32.024981 32.025016 32.025033 32.025033 32.025016 32.024981 32.024930 32.024858 32.024771 32.024659 32.024533 32.024378 32.024207 32.024004 32.023785 32.023529 32.023258 32.022944 32.022615 32.022241 32.021853 32.021415 32.020966 32.020466 32.019957 32.019398 32.018834 32.018221 32.017609 32.016951 32.016302 32.015613 32.014940 32.014235 32.013556 32.012855 32.012192 32.011518 32.010896 32.010279 32.009729 32.009204 32.008765 32.008376 32.008097 32.007902 32.007850 32.007923 32.008183 32.008625 32.009314 32.010258 32.011528 32.013149 32.015201 32.017725 32.020815 32.024533 32.028982 32.034248 32.040451 32.047696 32.056119 32.065845 32.077025 32.089801 32.104335 32.120780 32.139305 32.160069 32.183236 32.208961 32.237397 32.268682 32.302947 32.340301 32.380838 32.424629 32.471720 32.522129 32.575845 32.632826 32.692996 32.756244 32.822429 32.891372 32.962863 33.036660 33.112493 33.190066 33.269059 33.349134 33.429939 33.511111
33.888889 33.787424 33.686418 33.586324 33.487583 33.390618 33.295827 33.203581 33.114218 33.028040 32.945310 32.866251 32.791040 32.719816 32.652673 32.589665 32.530805 32.476070 32.425404 32.378718 32.335894 32.296796 32.261261 32.229117 32.200172 32.174234 32.151096 32.130560 32.112417 32.096475 32.082531 32.070409 32.059919 32.050907 32.043200 32.036671 32.031165 32.026582 32.022786 32.019704 32.017215 32.015273 32.013770 32.012684 32.011916 32.011465 32.011240 32.011255 32.011425 32.011779 32.012234 32.012831 32.013486 32.014251 32.015041 32.015915 32.016790 32.017727 32.018644 32.019606 32.020532 32.021487 32.022394 32.023318 32.024183 32.025055 32.025862 32.026665 32.027401 32.028127 32.028784 32.029425 32.029999 32.030554 32.031044 32.031514 32.031924 32.032313 32.032647 32.032960 32.033226 32.033469 32.033671 32.033853 32.033998 32.034123 32.034217 32.034289 32.034335 32.034359 32.034359 32.034335 32.034289 32.034216 32.034123 32.033998 32.033853 32.033671 32.033469 32.033225 32.032960 32.032647 32.032313 32.031924 32.031514 32.031044 32.030553 32.029998 32.029424 32.028782 32.028125 32.027399 32.026662 32.025857 32.025049 32.024175 32.023307 32.022380 32.021469 32.020507 32.019573 32.018602 32.017672 32.016718 32.015823 32.014923 32.014099 32.013293 32.012586 32.011926 32.011392 32.010940 32.010652 32.010493 32.010544 32.010786 32.011303 32.012091 32.013241 32.014766 32.016766 32.019278 32.022413 32.026232 32.030861 32.036389 32.042958 32.050684 32.059729 32.070236 32.082385 32.096344 32.112307 32.130462 32.151015 32.174162 32.200113 32.229066 32.261220 32.296760 32.335865 32.378693 32.425384 32.476053 32.530791 32.589653 32.652664 32.719809 32.791034 32.866246 32.945307 33.028037 33.114216 33.203579 33.295825 33.390617 33.487583 33.586324 33.686418 33.787424 33.888889
34.266667 34.144909 34.023702 33.903589 33.785100 33.668742 33.554993 33.444298 33.337063 33.233650 33.134375 33.039504 32.949252 32.863784 32.783214 32.707605 32.636975 32.571296 32.510500 32.454479 32.403096 32.356182 32.313548 32.274980 32.240257 32.209138 32.181387 32.156754 32.135003 32.115884 32.099179 32.084649 32.072096 32.061303 32.052101 32.044292 32.037742 32.032276 32.027791 32.024132 32.021230 32.018947 32.017244 32.015995 32.015190 32.014712 32.014572 32.014661 32.015011 32.015514 32.016219 32.017018 32.017974 32.018979 32.020105 32.021245 32.022476 32.023691 32.024974 32.026219 32.027510 32.028743 32.030005 32.031196 32.032399 32.033520 32.034642 32.035675 32.036697 32.037628 32.038541 32.039362 32.040160 32.040870 32.041552 32.042152 32.042722 32.043218 32.043683 32.044082 32.044451 32.044761 32.045042 32.045273 32.045475 32.045633 32.045764 32.045856 32.045920 32.045950 32.045950 32.045920 32.045856 32.045764 32.045633 32.045475 32.045272 32.045042 32.044761 32.044451 32.044082 32.043683 32.043218 32.042722 32.042151 32.041551 32.040869 32.040159 32.039361 32.038539 32.037626 32.036694 32.035671 32.034637 32.033513 32.032390 32.031183 32.029989 32.028721 32.027480 32.026180 32.024924 32.023625 32.022390 32.021134 32.019963 32.018797 32.017742 32.016725 32.015848 32.015049 32.014430 32.013938 32.013676 32.013607 32.013834 32.014339 32.015229 32.016508 32.018291 32.020607 32.023582 32.027273 32.031823 32.037321 32.043927 32.051764 32.061014 32.071833 32.084425 32.098977 32.115715 32.134850 32.156627 32.181275 32.209045 32.240175 32.274913 32.313490 32.356135 32.403056 32.454446 32.510472 32.571274 32.636957 32.707590 32.783202 32.863774 32.949244 33.039498 33.134370 33.233646 33.337060 33.444295 33.554991 33.668741 33.785099 33.903589 34.023701 34.144909 34.266667
34.644444 34.502394 34.360986 34.220855 34.082618 33.946866 33.814159 33.685016 33.559909 33.439261 33.323441 33.212759 33.107466 33.007755 32.913758 32.825551 32.743151 32.666530 32.595604 32.530252 32.470310 32.415587 32.365853 32.320870 32.280369 32.244082 32.211718 32.183005 32.157645 32.135374 32.115906 32.098999 32.084383 32.071848 32.061149 32.052111 32.044516 32.038228 32.033052 32.028892 32.025574 32.023041 32.021134 32.019830 32.018982 32.018599 32.018540 32.018840 32.019364 32.020166 32.021113 32.022279 32.023527 32.024945 32.026397 32.027981 32.029558 32.031235 32.032872 32.034581 32.036224 32.037914 32.039518 32.041146 32.042673 32.044205 32.045626 32.047037 32.048330 32.049602 32.050754 32.051877 32.052882 32.053852 32.054711 32.055531 32.056248 32.056926 32.057510 32.058055 32.058517 32.058941 32.059294 32.059609 32.059862 32.060078 32.060241 32.060368 32.060447 32.060489 32.060489 32.060447 32.060368 32.060241 32.060078 32.059862 32.059609 32.059294 32.058941 32.058517 32.058055 32.057510 32.056925 32.056248 32.055531 32.054711 32.053852 32.052881 32.051876 32.050753 32.049599 32.048327 32.047032 32.045620 32.044197 32.042662 32.041131 32.039498 32.037888 32.036190 32.034536 32.032813 32.031157 32.029458 32.027851 32.026231 32.024733 32.023256 32.021936 32.020681 32.019623 32.018685 32.017996 32.017494 32.017310 32.017400 32.017897 32.018784 32.020196 32.022146 32.024780 32.028141 32.032392 32.037610 32.043978 32.051613 32.060720 32.071454 32.084047 32.098693 32.115648 32.135142 32.157451 32.182831 32.211575 32.243955 32.280265 32.320779 32.365779 32.415522 32.470259 32.530208 32.595569 32.666500 32.743128 32.825531 32.913742 33.007742 33.107456 33.212750 33.323434 33.439256 33.559905 33.685013 33.814157 33.946865 34.082617 34.220854 34.360985 34.502393 34.644444
35.022222 34.859879 34.698270 34.538120 34.380136 34.224991 34.073327 33.925734 33.782756 33.644873 33.512508 33.386016 33.265683 33.151730 33.044308 32.943501 32.849336 32.761772 32.680721 32.606039 32.537545 32.475010 32.418188 32.366790 32.320524 32.279068 32.242111 32.209316 32.180374 32.154950 32.132755 32.113468 32.096834 32.082556 32.070417 32.060148 32.051580 32.044468 32.038689 32.034025 32.030399 32.027611 32.025626 32.024261 32.023517 32.023222 32.023410 32.023914 32.024796 32.025889 32.027280 32.028801 32.030557 32.032377 32.034381 32.036396 32.038552 32.040675 32.042901 32.045058 32.047285 32.049413 32.051582 32.053630 32.055693 32.057617 32.059535 32.061304 32.063050 32.064642 32.066198 32.067601 32.068958 32.070168 32.071328 32.072350 32.073318 32.074160 32.074950 32.075626 32.076251 32.076777 32.077253 32.077643 32.077985 32.078253 32.078474 32.078630 32.078738 32.078789 32.078789 32.078738 32.078630 32.078474 32.078253 32.077985 32.077643 32.077253 32.076777 32.076251 32.075626 32.074950 32.074160 32.073318 32.072349 32.071328 32.070168 32.068957 32.067599 32.066196 32.064639 32.063046 32.061299 32.059528 32.057607 32.055680 32.053613 32.051560 32.049383 32.047245 32.045006 32.042833 32.040586 32.038437 32.036248 32.034191 32.032135 32.030248 32.028410 32.026786 32.025269 32.024020 32.022949 32.022215 32.021749 32.021709 32.022052 32.022940 32.024359 32.026480 32.029325 32.033077 32.037797 32.043688 32.050853 32.059519 32.069837 32.082058 32.096380 32.113083 32.132406 32.154657 32.180111 32.209098 32.241917 32.278908 32.320383 32.366675 32.418088 32.474930 32.537475 32.605983 32.680673 32.761734 32.849304 32.943476 33.044287 33.151713 33.265670 33.386005 33.512500 33.644867 33.782750 33.925730 34.073324 34.224989 34.380134 34.538119 34.698269 34.859878 35.022222
35.400000 35.217364 35.035554 34.855386 34.677654 34.503117 34.332495 34.166454 34.005604 33.850488 33.701578 33.559276 33.423904 33.295710 33.174863 33.061461 32.955529 32.857027 32.765851 32.681846 32.604799 32.534465 32.470552 32.412754 32.360723 32.314120 32.272568 32.235721 32.203194 32.174655 32.149730 32.128116 32.109461 32.093505 32.079924 32.068506 32.058960 32.051126 32.044740 32.039697 32.035756 32.032862 32.030792 32.029539 32.028891 32.028883 32.029309 32.030238 32.031468 32.033097 32.034920 32.037061 32.039310 32.041812 32.044352 32.047089 32.049805 32.052669 32.055464 32.058364 32.061153 32.064008 32.066720 32.069463 32.072037 32.074613 32.077003 32.079371 32.081542 32.083673 32.085605 32.087482 32.089165 32.090785 32.092220 32.093587 32.094784 32.095911 32.096886 32.097791 32.098561 32.099265 32.099850 32.100373 32.100793 32.101152 32.101422 32.101632 32.101764 32.101833 32.101833 32.101764 32.101632 32.101422 32.101152 32.100793 32.100373 32.099850 32.099265 32.098561 32.097791 32.096885 32.095911 32.094784 32.093587 32.092220 32.090784 32.089164 32.087480 32.085603 32.083670 32.081538 32.079365 32.076995 32.074603 32.072023 32.069444 32.066694 32.063975 32.061109 32.058306 32.055388 32.052570 32.049676 32.046922 32.044139 32.041539 32.038963 32.036620 32.034364 32.032399 32.030595 32.029153 32.027964 32.027225 32.026857 32.027054 32.027770 32.029203 32.031347 32.034410 32.038427 32.043622 32.050081 32.058049 32.067664 32.079197 32.092838 32.108892 32.127599 32.149294 32.174262 32.202866 32.235428 32.272326 32.313905 32.360547 32.412600 32.470428 32.534357 32.604712 32.681771 32.765792 32.856977 32.955489 33.061427 33.174836 33.295688 33.423887 33.559262 33.701568 33.850479 34.005597 34.166449 34.332491 34.503114 34.677652 34.855385 35.035553 35.217363 35.400000
35.777778 35.574849 35.372839 35.172653 34.975173 34.781243 34.591664 34.407175 34.228454 34.056104 33.890651 33.732540 33.582130 33.439695 33.305426 33.179429 33.061735 32.952296 32.851002 32.757673 32.672084 32.593951 32.522964 32.458764 32.400991 32.349238 32.303123 32.262221 32.226153 32.194496 32.166898 32.142952 32.122349 32.104710 32.089780 32.077208 32.066801 32.058239 32.051388 32.045958 32.041873 32.038864 32.036911 32.035760 32.035442 32.035709 32.036637 32.037979 32.039850 32.042000 32.044575 32.047319 32.050404 32.053569 32.057003 32.060439 32.064084 32.067666 32.071400 32.075016 32.078732 32.082285 32.085893 32.089301 32.092723 32.095918 32.099094 32.102025 32.104910 32.107544 32.110110 32.112427 32.114662 32.116658 32.118564 32.120246 32.121836 32.123220 32.124514 32.125624 32.126647 32.127509 32.128287 32.128925 32.129484 32.129922 32.130281 32.130537 32.130713 32.130796 32.130796 32.130713 32.130537 32.130281 32.129922 32.129484 32.128925 32.128287 32.127509 32.126647 32.125624 32.124514 32.123220 32.121835 32.120245 32.118564 32.116657 32.114661 32.112425 32.110108 32.107540 32.104906 32.102019 32.099085 32.095906 32.092707 32.089280 32.085865 32.082248 32.078683 32.074951 32.071315 32.067556 32.063941 32.060255 32.056766 32.053265 32.050018 32.046830 32.043958 32.041225 32.038881 32.036773 32.035143 32.033868 32.033182 32.032999 32.033554 32.034799 32.036975 32.040083 32.044373 32.049901 32.056936 32.065589 32.076157 32.088812 32.103880 32.121592 32.142308 32.166316 32.194007 32.225715 32.261856 32.302800 32.348971 32.400757 32.458573 32.522798 32.593816 32.671968 32.757580 32.850923 32.952233 33.061682 33.179387 33.305391 33.439668 33.582108 33.732523 33.890637 34.056093 34.228445 34.407169 34.591659 34.781240 34.975170 35.172651 35.372837 35.574848 35.777778
36.155556 35.932334 35.710123 35.489919 35.272692 35.059371 34.850834 34.647898 34.451306 34.261723 34.079728 33.905809 33.740361 33.583689 33.435998 33.297411 33.167955 33.047586 32.936174 32.833532 32.739401 32.653484 32.575422 32.504845 32.441327 32.384459 32.333778 32.288867 32.249253 32.214540 32.184263 32.158066 32.135510 32.116292 32.100005 32.086410 32.075133 32.066005 32.058680 32.053058 32.048819 32.045927 32.044080 32.043302 32.043300 32.044152 32.045566 32.047669 32.050164 32.053218 32.056524 32.060284 32.064182 32.068445 32.072747 32.077336 32.081880 32.086639 32.091280 32.096071 32.100679 32.105378 32.109844 32.114346 32.118575 32.122794 32.126712 32.130581 32.134134 32.137609 32.140765 32.143821 32.146566 32.149198 32.151535 32.153753 32.155698 32.157525 32.159105 32.160570 32.161817 32.162954 32.163901 32.164744 32.165423 32.166001 32.166438 32.166775 32.166988 32.167099 32.167099 32.166988 32.166775 32.166438 32.166001 32.165423 32.164744 32.163901 32.162954 32.161817 32.160570 32.159105 32.157525 32.155698 32.153753 32.151534 32.149197 32.146565 32.143819 32.140762 32.137605 32.134129 32.130574 32.126702 32.122781 32.118558 32.114323 32.109813 32.105338 32.100625 32.095999 32.091187 32.086518 32.081723 32.077133 32.072486 32.068111 32.063757 32.059746 32.055845 32.052365 32.049098 32.046343 32.043923 32.042126 32.040814 32.040265 32.040386 32.041456 32.043431 32.046596 32.050964 32.056833 32.064282 32.073630 32.085021 32.098804 32.115194 32.134570 32.157214 32.183542 32.213892 32.248710 32.288384 32.333377 32.384105 32.441037 32.504591 32.575216 32.653306 32.739257 32.833409 32.936075 33.047502 33.167889 33.297355 33.435955 33.583653 33.740333 33.905786 34.079710 34.261709 34.451295 34.647889 34.850828 35.059366 35.272688 35.489917 35.710122 35.932334 36.155556
36.533333 36.289820 36.047409 35.807187 35.570212 35.337499 35.110006 34.888623 34.674161 34.467346 34.268809 34.079083 33.898601 33.727691 33.566583 33.415405 33.274195 33.142895 33.021377 32.909422 32.806766 32.713064 32.627952 32.550995 32.481768 32.419781 32.364583 32.315658 32.272566 32.234790 32.201923 32.173468 32.149072 32.128267 32.110768 32.096139 32.084174 32.074467 32.066888 32.061062 32.056933 32.054145 32.052714 32.052293 32.052966 32.054385 32.056693 32.059536 32.063106 32.067040 32.071570 32.076319 32.081556 32.086887 32.092608 32.098315 32.104323 32.110221 32.116337 32.122259 32.128321 32.134119 32.139986 32.145531 32.151082 32.156270 32.161411 32.166162 32.170823 32.175082 32.179221 32.182961 32.186560 32.189776 32.192839 32.195544 32.198095 32.200318 32.202390 32.204170 32.205805 32.207184 32.208426 32.209447 32.210338 32.211037 32.211610 32.212017 32.212297 32.212431 32.212431 32.212297 32.212017 32.211610 32.211037 32.210338 32.209447 32.208426 32.207184 32.205805 32.204169 32.202390 32.200318 32.198094 32.195544 32.192838 32.189774 32.186559 32.182959 32.179218 32.175078 32.170817 32.166154 32.161401 32.156256 32.151064 32.145506 32.139952 32.134074 32.128262 32.122181 32.116235 32.110088 32.104151 32.098093 32.092323 32.086523 32.081092 32.075732 32.070829 32.066109 32.061943 32.058089 32.054900 32.052175 32.050254 32.048980 32.048685 32.049267 32.051056 32.054012 32.058471 32.064461 32.072336 32.082197 32.094421 32.109189 32.126908 32.147836 32.172415 32.200974 32.233990 32.271851 32.315062 32.364055 32.419345 32.481386 32.550682 32.627680 32.712844 32.806577 32.909270 33.021248 33.142793 33.274108 33.415336 33.566526 33.727646 33.898564 34.079055 34.268786 34.467328 34.674147 34.888612 35.109998 35.337493 35.570207 35.807183 36.047406 36.289819 36.533333
36.911111 36.647306 36.384694 36.124455 35.867733 35.615629 35.369180 35.129350 34.897019 34.672973 34.457895 34.252365 34.056848 33.871705 33.697181 33.533419 33.380455 33.238237 33.106611 32.985361 32.874177 32.772717 32.680551 32.597252 32.522312 32.455258 32.395537 32.342670 32.296092 32.255348 32.219882 32.189293 32.163047 32.140812 32.122089 32.106627 32.093958 32.083920 32.076072 32.070339 32.066303 32.063972 32.062938 32.063287 32.064613 32.067072 32.070248 32.074360 32.078978 32.084374 32.090097 32.096462 32.103001 32.110063 32.117162 32.124674 32.132100 32.139835 32.147374 32.155123 32.162581 32.170158 32.177363 32.184603 32.191410 32.198180 32.204473 32.210670 32.216367 32.221921 32.226971 32.231847 32.236230 32.240422 32.244146 32.247672 32.250767 32.253665 32.256174 32.258494 32.260472 32.262269 32.263769 32.265100 32.266173 32.267085 32.267775 32.268306 32.268643 32.268817 32.268817 32.268643 32.268306 32.267775 32.267085 32.266173 32.265100 32.263769 32.262269 32.260472 32.258494 32.256174 32.253664 32.250767 32.247671 32.244145 32.240420 32.236229 32.231844 32.226967 32.221916 32.216360 32.210661 32.204462 32.198165 32.191390 32.184576 32.177327 32.170109 32.162518 32.155039 32.147264 32.139691 32.131914 32.124434 32.116853 32.109669 32.102499 32.095826 32.089294 32.083366 32.077719 32.072793 32.068306 32.064677 32.061675 32.059698 32.058573 32.058688 32.059936 32.062702 32.066953 32.073080 32.081134 32.091522 32.104380 32.120145 32.139036 32.161525 32.187915 32.218714 32.254301 32.295213 32.341889 32.394888 32.454687 32.521842 32.596843 32.680218 32.772428 32.873945 32.985162 33.106452 33.238102 33.380348 33.533330 33.697111 33.871647 34.056803 34.252328 34.457867 34.672950 34.897002 35.129336 35.369169 35.615621 35.867728 36.124451 36.384692 36.647304 36.911111
37.288889 37.004792 36.721980 36.441724 36.165256 35.893761 35.628356 35.370080 35.119882 34.878605 34.646989 34.425654 34.215108 34.015732 33.827798 33.651453 33.486746 33.333608 33.191893 33.061345 32.941662 32.832439 32.733259 32.643613 32.563014 32.490886 32.426718 32.369900 32.319936 32.276215 32.238283 32.205546 32.177622 32.153944 32.134216 32.117903 32.104804 32.094414 32.086631 32.080970 32.077427 32.075528 32.075361 32.076453 32.078975 32.082442 32.087101 32.092449 32.098797 32.105616 32.113272 32.121211 32.129844 32.138588 32.147893 32.157155 32.166848 32.176358 32.186174 32.195682 32.205378 32.214658 32.224016 32.232869 32.241704 32.249969 32.258133 32.265686 32.273073 32.279832 32.286379 32.292301 32.297983 32.303065 32.307892 32.312159 32.316170 32.319670 32.322922 32.325719 32.328281 32.330445 32.332388 32.333987 32.335378 32.336472 32.337366 32.338003 32.338440 32.338649 32.338649 32.338440 32.338003 32.337366 32.336472 32.335378 32.333987 32.332388 32.330444 32.328281 32.325719 32.322922 32.319669 32.316169 32.312158 32.307892 32.303064 32.297982 32.292299 32.286375 32.279827 32.273067 32.265677 32.258121 32.249952 32.241682 32.232840 32.223977 32.214606 32.205310 32.195592 32.186056 32.176203 32.166647 32.156896 32.147561 32.138164 32.129303 32.120526 32.112408 32.104530 32.097440 32.090761 32.085010 32.079864 32.075810 32.072588 32.070661 32.069838 32.070570 32.072745 32.076810 32.082741 32.090993 32.101637 32.115145 32.131687 32.151764 32.175642 32.203857 32.236763 32.274931 32.318792 32.368943 32.425873 32.490187 32.562402 32.643111 32.732824 32.832086 32.941358 33.061102 33.191686 33.333443 33.486607 33.651344 33.827707 34.015661 34.215049 34.425609 34.646952 34.878577 35.119859 35.370063 35.628343 35.893751 36.165248 36.441719 36.721977 37.004790 37.288889
37.666667 37.362278 37.059267 36.758994 36.462780 36.171895 35.887535 35.610815 35.342748 35.084244 34.836090 34.598956 34.373379 34.159778 33.958434 33.769517 33.593066 33.429027 33.277219 33.137402 33.009214 32.892269 32.786069 32.690132 32.603868 32.526744 32.458118 32.397456 32.344096 32.297537 32.257125 32.222427 32.192808 32.167923 32.147170 32.130305 32.116752 32.106380 32.098634 32.093491 32.090411 32.089475 32.090142 32.092595 32.096275 32.101457 32.107558 32.114931 32.122963 32.132074 32.141613 32.152061 32.162729 32.174145 32.185590 32.197624 32.209511 32.221834 32.233847 32.246146 32.257990 32.269981 32.281393 32.292825 32.303582 32.314247 32.324172 32.333914 32.342880 32.351595 32.359526 32.367161 32.374032 32.380581 32.386407 32.391905 32.396736 32.401246 32.405155 32.408759 32.411833 32.414621 32.416949 32.419008 32.420672 32.422082 32.423150 32.423971 32.424492 32.424761 32.424761 32.424492 32.423971 32.423150 32.422082 32.420672 32.419008 32.416949 32.414621 32.411833 32.408759 32.405155 32.401245 32.396736 32.391904 32.386406 32.380580 32.374030 32.367158 32.359523 32.351590 32.342873 32.333905 32.324159 32.314230 32.303559 32.292793 32.281351 32.269925 32.257916 32.246049 32.233720 32.221669 32.209297 32.197348 32.185234 32.173690 32.162150 32.151327 32.140687 32.130911 32.121509 32.113123 32.105317 32.098694 32.092885 32.088453 32.085106 32.083378 32.083064 32.084679 32.088111 32.093873 32.101955 32.112876 32.126737 32.144076 32.165103 32.190387 32.220240 32.255268 32.295875 32.342698 32.396217 32.457087 32.525838 32.603121 32.689482 32.785539 32.891811 33.008845 33.137086 33.276967 33.428813 33.592897 33.769375 33.958322 34.159685 34.373307 34.598897 34.836044 35.084207 35.342720 35.610792 35.887518 36.171882 36.462771 36.758987 37.059263 37.362276 37.666667