<?xml version="1.0"?>
<VTKFile type="ImageData" version="0.1" byte_order="LittleEndian">
  <ImageData WholeExtent="0 180 0 180 0 0" Origin="0.0 0.0 0.0" Spacing="0.05 0.05 1">
    <Piece Extent="0 180 0 180 0 0">
      <PointData Scalars="Temperature">
        <DataArray type="Float32" Name="Temperature" format="ascii">
32.000000 32.000000 32.000000 32.000000 32.000000 32.000000 32.000000 32.000000 32.000000 32.000000 32.000000 32.000000 32.000000 32.000000 32.000000 32.000000 32.000000 32.000000 32.000000 32.000000 32.000000 32.000000 32.000000 32.000000 32.000000 32.000000 32.000000 32.000000 32.000000 32.000000 32.000000 32.000000 32.000000 32.000000 32.000000 32.000000 32.000000 32.000000 32.000000 32.000000 32.000000 32.000000 32.000000 32.000000 32.000000 32.000000 32.000000 32.000000 32.000000 32.000000 32.000000 32.000000 32.000000 32.000000 32.000000 32.000000 32.000000 32.000000 32.000000 32.000000 32.000000 32.000000 32.000000 32.000000 32.000000 32.000000 32.000000 32.000000 32.000000 32.000000 32.000000 32.000000 32.000000 32.000000 32.000000 32.000000 32.000000 32.000000 32.000000 32.000000 32.000000 32.000000 32.000000 32.000000 32.000000 32.000000 32.000000 32.000000 32.000000 32.000000 32.000000 32.000000 32.000000 32.000000 32.000000 32.000000 32.000000 32.000000 32.000000 32.000000 32.000000 32.000000 32.000000 32.000000 32.000000 32.000000 32.000000 32.000000 32.000000 32.000000 32.000000 32.000000 32.000000 32.000000 32.000000 32.000000 32.000000 32.000000 32.000000 32.000000 32.000000 32.000000 32.000000 32.000000 32.000000 32.000000 32.000000 32.000000 32.000000 32.000000 32.000000 32.000000 32.000000 32.000000 32.000000 32.000000 32.000000 32.000000 32.000000 32.000000 32.000000 32.000000 32.000000 32.000000 32.000000 32.000000 32.000000 32.000000 32.000000 32.000000 32.000000 32.000000 32.000000 32.000000 32.000000 32.000000 32.000000 32.000000 32.000000 32.000000 32.000000 32.000000 32.000000 32.000000 32.000000 32.000000 32.000000 32.000000 32.000000 32.000000 32.000000 32.000000 32.000000 32.000000 32.000000 32.000000 32.000000 32.000000 32.000000 32.000000 32.000000
32.377778 32.408637 32.439501 32.470372 32.501254 32.532151 32.563067 32.594004 32.624965 32.655955 32.686974 32.718025 32.749110 32.780231 32.811388 32.842582 32.873813 32.905080 32.936383 32.967720 32.999088 33.030485 33.061906 33.093349 33.124807 33.156275 33.187746 33.219214 33.250668 33.282102 33.313504 33.344866 33.376172 33.407415 33.438578 33.469649 33.500611 33.531452 33.562151 33.592696 33.623065 33.653242 33.683207 33.712941 33.742423 33.771634 33.800551 33.829155 33.857422 33.885334 33.912864 33.939995 33.966702 33.992966 34.018763 34.044074 34.068877 34.093152 34.116879 34.140039 34.162612 34.184583 34.205930 34.226641 34.246698 34.266086 34.284791 34.302801 34.320101 34.336682 34.352531 34.367640 34.381999 34.395600 34.408434 34.420497 34.431781 34.442281 34.451992 34.460910 34.469030 34.476351 34.482869 34.488582 34.493488 34.497585 34.500871 34.503347 34.505012 34.505864 34.505904 34.505132 34.503548 34.501154 34.497949 34.493935 34.489114 34.483487 34.477057 34.469825 34.461797 34.452973 34.443359 34.432959 34.421778 34.409821 34.397096 34.383609 34.369368 34.354380 34.338657 34.322207 34.305043 34.287174 34.268615 34.249378 34.229479 34.208932 34.187753 34.165959 34.143568 34.120596 34.097065 34.072993 34.048400 34.023306 33.997735 33.971703 33.945237 33.918355 33.891081 33.863436 33.835443 33.807121 33.778496 33.749586 33.720414 33.690998 33.661363 33.631523 33.601502 33.571315 33.540982 33.510519 33.479944 33.449270 33.418515 33.387691 33.356812 33.325889 33.294937 33.263962 33.232978 33.201991 33.171011 33.140044 33.109099 33.078178 33.047290 33.016436 32.985623 32.954849 32.924121 32.893437 32.862801 32.832210 32.801666 32.771167 32.740714 32.710303 32.679933 32.649600 32.619304 32.589039 32.558804 32.528593 32.498404 32.468232 32.438073 32.407923 32.377778
32.755556 32.817276 32.879005 32.940749 33.002515 33.064311 33.126145 33.188021 33.249947 33.311928 33.373970 33.436075 33.498250 33.560494 33.622813 33.685205 33.747673 33.810213 33.872826 33.935505 33.998249 34.061050 34.123903 34.186796 34.249723 34.312668 34.375622 34.438567 34.501490 34.564369 34.627190 34.689924 34.752556 34.815054 34.877399 34.939555 35.001500 35.063197 35.124618 35.185724 35.246485 35.306858 35.366811 35.426299 35.485287 35.543729 35.601587 35.658815 35.715375 35.771217 35.826303 35.880585 35.934024 35.986571 36.038189 36.088830 36.138458 36.187026 36.234501 36.280838 36.326004 36.369960 36.412674 36.454110 36.494239 36.533028 36.570453 36.606482 36.641096 36.674266 36.705976 36.736201 36.764928 36.792136 36.817813 36.841944 36.864517 36.885521 36.904947 36.922786 36.939031 36.953675 36.966713 36.978140 36.987953 36.996148 37.002723 37.007675 37.011004 37.012709 37.012789 37.011245 37.008077 37.003287 36.996877 36.988848 36.979204 36.967948 36.955085 36.940621 36.924559 36.906909 36.887676 36.866872 36.844504 36.820586 36.795128 36.768147 36.739655 36.709673 36.678216 36.645307 36.610965 36.575217 36.538084 36.499599 36.459784 36.418675 36.376299 36.332695 36.287892 36.241933 36.194850 36.146687 36.097479 36.047273 35.996105 35.944023 35.891066 35.837282 35.782710 35.727399 35.671388 35.614725 35.557450 35.499610 35.441241 35.382392 35.323096 35.263399 35.203333 35.142942 35.082256 35.021314 34.960143 34.898781 34.837252 34.775590 34.713815 34.651957 34.590035 34.528076 34.466092 34.404109 34.342137 34.280195 34.218292 34.156445 34.094658 34.032945 33.971308 33.909757 33.848292 33.786920 33.725640 33.664456 33.603363 33.542363 33.481451 33.420626 33.359882 33.299216 33.238620 33.178089 33.117616 33.057194 32.996814 32.936469 32.876149 32.815848 32.755556
33.133333 33.225919 33.318516 33.411136 33.503790 33.596490 33.689245 33.782066 33.874960 33.967940 34.061008 34.154176 34.247445 34.340824 34.434312 34.527914 34.621626 34.715452 34.809384 34.903422 34.997554 35.091777 35.186075 35.280440 35.374851 35.469298 35.563754 35.658204 35.752616 35.846971 35.941231 36.035373 36.129355 36.223146 36.316699 36.409982 36.502940 36.595535 36.687711 36.779423 36.870610 36.961226 37.051203 37.140493 37.229026 37.316748 37.403588 37.489490 37.574381 37.658205 37.740886 37.822369 37.902578 37.981458 38.058934 38.134952 38.209442 38.282348 38.353605 38.423161 38.490952 38.556932 38.621041 38.683237 38.743465 38.801686 38.857853 38.911930 38.963876 39.013660 39.061246 39.106609 39.149716 39.190549 39.229079 39.265291 39.299162 39.330681 39.359829 39.386597 39.410971 39.432945 39.452507 39.469652 39.484375 39.496670 39.506534 39.513965 39.518959 39.521517 39.521637 39.519320 39.514567 39.507380 39.497762 39.485715 39.471246 39.454357 39.435058 39.413353 39.389254 39.362768 39.333910 39.302691 39.269127 39.233234 39.195033 39.154541 39.111785 39.066788 39.019580 38.970188 38.918649 38.864994 38.809266 38.751499 38.691743 38.630037 38.566435 38.500982 38.433737 38.364748 38.294078 38.221780 38.147920 38.072554 37.995753 37.917572 37.838084 37.757348 37.675438 37.592411 37.508342 37.423288 37.337323 37.250503 37.162900 37.074568 36.985576 36.895974 36.805830 36.715190 36.624117 36.532653 36.440857 36.348767 36.256436 36.163899 36.071203 35.978376 35.885463 35.792487 35.699485 35.606477 35.513495 35.420554 35.327679 35.234882 35.142184 35.049592 34.957121 34.864775 34.772566 34.680492 34.588561 34.496770 34.405122 34.313611 34.222236 34.130990 34.039868 33.948861 33.857962 33.767160 33.676446 33.585808 33.495234 33.404713 33.314231 33.223775 33.133333
33.511111 33.634566 33.758037 33.881539 34.005087 34.128695 34.252378 34.376149 34.500022 34.624005 34.748112 34.872349 34.996728 35.121249 35.245922 35.370744 35.495721 35.620846 35.746120 35.871532 35.997079 36.122742 36.248515 36.374373 36.500304 36.626276 36.752273 36.878256 37.004201 37.130063 37.255813 37.381398 37.506782 37.631906 37.756727 37.881178 38.005211 38.128752 38.251747 38.374116 38.495799 38.616711 38.736785 38.855933 38.974084 39.091144 39.207041 39.321677 39.434976 39.546841 39.657193 39.765936 39.872990 39.978260 40.081668 40.183118 40.282539 40.379836 40.474940 40.567764 40.658241 40.746291 40.831851 40.914847 40.995224 41.072913 41.147867 41.220023 41.289340 41.355765 41.419261 41.479782 41.537299 41.591773 41.643179 41.691486 41.736675 41.778719 41.817603 41.853308 41.885822 41.915130 41.941224 41.964093 41.983730 42.000129 42.013286 42.023196 42.029857 42.033268 42.033428 42.030337 42.023998 42.014412 42.001582 41.985515 41.966214 41.943689 41.917944 41.888994 41.856846 41.821517 41.783019 41.741373 41.696595 41.648713 41.597744 41.543724 41.486676 41.426641 41.363650 41.297748 41.228973 41.157380 41.083010 41.005927 40.926178 40.843835 40.758951 40.671604 40.581855 40.489786 40.395464 40.298978 40.200397 40.099816 39.997308 39.892970 39.786878 39.679131 39.569806 39.459004 39.346801 39.233296 39.118566 39.002709 38.885797 38.767926 38.649165 38.529606 38.409314 38.288374 38.166848 38.044816 37.922332 37.799471 37.676281 37.552829 37.429158 37.305328 37.181374 37.057351 36.933286 36.809226 36.685194 36.561229 36.437347 36.313580 36.189940 36.066451 35.943120 35.819965 35.696986 35.574199 35.451598 35.329191 35.206971 35.084941 34.963089 34.841415 34.719904 34.598551 34.477341 34.356263 34.235301 34.114443 33.993670 33.872969 33.752320 33.631707 33.511111
33.888889 34.043220 34.197571 34.351961 34.506409 34.660935 34.815554 34.970285 35.125143 35.280144 35.435298 35.590622 35.746119 35.901802 36.057673 36.213739 36.369996 36.526448 36.683083 36.839902 36.996885 37.154027 37.311301 37.468695 37.626176 37.783724 37.941296 38.098867 38.256385 38.413817 38.571101 38.728197 38.885034 39.041564 39.197707 39.353407 39.508575 39.663147 39.817027 39.970144 40.122392 40.273694 40.423939 40.573042 40.720888 40.867387 41.012419 41.155889 41.297676 41.437684 41.575787 41.711890 41.845869 41.977626 42.107041 42.234020 42.358444 42.480222 42.599242 42.715419 42.828645 42.938842 43.045910 43.149778 43.250355 43.347576 43.441361 43.531652 43.618379 43.701492 43.780929 43.856651 43.928603 43.996752 44.061055 44.121485 44.178006 44.230597 44.279230 44.323889 44.364552 44.401208 44.433839 44.462439 44.486996 44.507504 44.523955 44.536348 44.544677 44.548942 44.549142 44.545276 44.537349 44.525360 44.509317 44.489223 44.465087 44.436914 44.404719 44.368510 44.328304 44.284114 44.235964 44.183870 44.127862 44.067961 44.004206 43.936622 43.865257 43.790143 43.711335 43.628875 43.542826 43.453237 43.360182 43.263718 43.163927 43.060874 42.954651 42.845332 42.733016 42.617782 42.499740 42.378975 42.255601 42.129709 42.001418 41.870824 41.738049 41.603190 41.466372 41.327692 41.187275 41.045218 40.901645 40.756650 40.610353 40.462845 40.314243 40.164631 40.014121 39.862792 39.710748 39.558062 39.404830 39.251117 39.097013 38.942573 38.787877 38.632975 38.477937 38.322803 38.167636 38.012468 37.857353 37.702313 37.547395 37.392614 37.238006 37.083582 36.929369 36.775371 36.621608 36.468077 36.314792 36.161745 36.008943 35.856373 35.704036 35.551917 35.400010 35.248297 35.096769 34.945405 34.794191 34.643104 34.492128 34.341239 34.190419 34.039642 33.888889
34.266667 34.451882 34.637121 34.822407 35.007765 35.193215 35.378782 35.564483 35.750341 35.936369 36.122589 36.309009 36.495648 36.682508 36.869603 37.056930 37.244499 37.432299 37.620333 37.808583 37.997047 38.185696 38.374523 38.563489 38.752577 38.941741 39.130954 39.320160 39.509324 39.698377 39.887277 40.075943 40.264322 40.452324 40.639885 40.826906 41.013313 41.198996 41.383871 41.567819 41.750748 41.932530 42.113066 42.292219 42.469885 42.645919 42.820213 42.992618 43.163020 43.331271 43.497252 43.660815 43.821842 43.980185 44.135729 44.288329 44.437873 44.584221 44.727267 44.866879 45.002957 45.135376 45.264047 45.388854 45.509716 45.626528 45.739219 45.847697 45.951898 46.051743 46.147177 46.238134 46.324568 46.406421 46.483660 46.556235 46.624119 46.687274 46.745679 46.799304 46.848134 46.892146 46.931328 46.965666 46.995150 47.019771 47.039523 47.054400 47.064400 47.069519 47.069758 47.065117 47.055598 47.041205 47.021942 46.997817 46.968835 46.935011 46.896350 46.852873 46.804591 46.751528 46.693701 46.631142 46.563872 46.491931 46.415349 46.334174 46.248443 46.158215 46.063535 45.964473 45.861084 45.753449 45.641633 45.525728 45.405809 45.281980 45.154323 45.022956 44.887970 44.749490 44.607616 44.462484 44.314199 44.162903 44.008709 43.851762 43.692178 43.530108 43.365668 43.199011 43.030253 42.859544 42.687000 42.512770 42.336963 42.159725 41.981159 41.801406 41.620562 41.438759 41.256087 41.072669 40.888585 40.703949 40.518833 40.333339 40.147530 39.961497 39.775292 39.588997 39.402654 39.216333 39.030067 38.843914 38.657900 38.472072 38.286445 38.101058 37.915918 37.731055 37.546467 37.362175 37.178172 36.994470 36.811056 36.627935 36.445089 36.262516 36.080195 35.898115 35.716255 35.534598 35.353119 35.171798 34.990609 34.809529 34.628529 34.447584 34.266667
34.644444 34.860553 35.076689 35.292882 35.509158 35.725546 35.942069 36.158755 36.375623 36.592699 36.809996 37.027538 37.245332 37.463398 37.681736 37.900360 38.119262 38.338451 38.557910 38.777641 38.997617 39.217832 39.438248 39.658851 39.879591 40.100445 40.321351 40.542275 40.763144 40.983912 41.204493 41.424831 41.644827 41.864412 42.083476 42.301938 42.519675 42.736595 42.952564 43.167479 43.381195 43.593599 43.804537 44.013888 44.221488 44.427210 44.630885 44.832378 45.031516 45.228164 45.422144 45.613319 45.801514 45.986592 46.168380 46.346744 46.521518 46.692573 46.859748 47.022924 47.181948 47.336709 47.487068 47.632922 47.774144 47.910644 48.042308 48.169056 48.290788 48.407437 48.518916 48.625168 48.726122 48.821730 48.911933 48.996694 49.075964 49.149715 49.217909 49.280526 49.337534 49.388920 49.434662 49.474749 49.509167 49.537909 49.560964 49.578330 49.590002 49.595977 49.596255 49.590836 49.579725 49.562922 49.540435 49.512270 49.478438 49.438946 49.393813 49.343049 49.286678 49.224717 49.157196 49.084138 49.005584 48.921562 48.832123 48.737305 48.637171 48.531766 48.421167 48.305431 48.184645 48.058880 47.928236 47.792794 47.652670 47.507956 47.358780 47.205246 47.047495 46.885639 46.719832 46.550195 46.376890 46.200045 46.019831 45.836382 45.649871 45.460437 45.268256 45.073466 44.876246 44.676732 44.475099 44.271481 44.066050 43.858932 43.650294 43.440255 43.228973 43.016559 42.803162 42.588882 42.373857 42.158177 41.941967 41.725307 41.508310 41.291043 41.073606 40.856056 40.638479 40.420920 40.203454 39.986113 39.768960 39.552018 39.335336 39.118928 38.902831 38.687051 38.471614 38.256517 38.041778 37.827384 37.613344 37.399641 37.186275 36.973222 36.760477 36.548010 36.335810 36.123844 35.912094 35.700528 35.489120 35.277838 35.066654 34.855533 34.644444
35.022222 35.269233 35.516277 35.763386 36.010593 36.257928 36.505425 36.753106 37.001004 37.249139 37.497539 37.746217 37.995198 38.244488 38.494106 38.744048 38.994329 39.244934 39.495872 39.747117 39.998667 40.250486 40.502564 40.754850 41.007324 41.259923 41.512613 41.765319 42.017995 42.270551 42.522928 42.775021 43.026757 43.278018 43.528719 43.778724 44.027935 44.276205 44.523421 44.769424 45.014089 45.257243 45.498753 45.738434 45.976145 46.211693 46.444927 46.675649 46.903705 47.128891 47.351050 47.569979 47.785519 47.997469 48.205673 48.409936 48.610104 48.805991 48.997451 49.184306 49.366422 49.543631 49.715809 49.882806 50.044508 50.200778 50.351520 50.496609 50.635964 50.769476 50.897077 51.018675 51.134212 51.243614 51.346834 51.443810 51.534508 51.618878 51.696893 51.768516 51.833727 51.892498 51.944817 51.990661 52.030024 52.062891 52.089257 52.109114 52.122461 52.129292 52.129609 52.123412 52.110703 52.091488 52.065770 52.033560 51.994864 51.949699 51.898074 51.840012 51.775528 51.704651 51.627404 51.543825 51.453944 51.357810 51.255462 51.146962 51.032358 50.911729 50.785132 50.652661 50.514387 50.370419 50.220842 50.065780 49.905332 49.739638 49.568810 49.393003 49.212341 49.026993 48.837096 48.642829 48.444338 48.241813 48.035407 47.825317 47.611702 47.394762 47.174659 46.951596 46.725732 46.497272 46.266370 46.033227 45.797995 45.560866 45.321983 45.081533 44.839649 44.596507 44.352228 44.106977 43.860863 43.614038 43.366599 43.118682 42.870372 42.621789 42.373006 42.124129 41.875214 41.626355 41.377595 41.129012 40.880639 40.632537 40.384727 40.137260 39.890144 39.643416 39.397077 39.151150 38.905627 38.660522 38.415818 38.171518 37.927599 37.684056 37.440860 37.197998 36.955436 36.713155 36.471118 36.229299 35.987661 35.746171 35.504792 35.263489 35.022222
35.400000 35.677924 35.955886 36.233924 36.512072 36.790371 37.068850 37.347547 37.626487 37.905707 38.185223 38.465069 38.745254 39.025806 39.306726 39.588033 39.869720 40.151798 40.434247 40.717070 41.000235 41.283735 41.567522 41.851579 42.135844 42.420286 42.704828 42.989427 43.273989 43.558455 43.842717 44.126699 44.410277 44.693362 44.975811 45.257519 45.538327 45.818117 46.096715 46.373986 46.649742 46.923837 47.196069 47.466280 47.734257 47.999834 48.262790 48.522948 48.780084 49.034017 49.284519 49.531407 49.774453 50.013477 50.248254 50.478608 50.704321 50.925224 51.141108 51.351816 51.557151 51.756966 51.951082 52.139364 52.321648 52.497817 52.667725 52.831268 52.988319 53.138791 53.282575 53.419598 53.549769 53.673030 53.789305 53.898550 54.000703 54.095732 54.183589 54.264250 54.337678 54.403857 54.462761 54.514379 54.558692 54.595695 54.625375 54.647729 54.662751 54.670440 54.670795 54.663817 54.649510 54.627875 54.598923 54.562657 54.519092 54.468236 54.410109 54.344725 54.272113 54.192289 54.105294 54.011153 53.909915 53.801616 53.686320 53.564071 53.434950 53.299014 53.156358 53.007056 52.851219 52.688936 52.520337 52.345526 52.164651 51.977832 51.785236 51.586996 51.383296 51.174283 50.960156 50.741074 50.517248 50.288848 50.056094 49.819162 49.578281 49.333630 49.085441 48.833895 48.579225 48.321610 48.061280 47.798408 47.533218 47.265878 46.996602 46.725549 46.452922 46.178867 45.903576 45.627180 45.349858 45.071726 44.792948 44.513624 44.233902 43.953868 43.673650 43.393321 43.112992 42.832721 42.552602 42.272678 41.993027 41.713678 41.434694 41.156090 40.877916 40.600175 40.322902 40.046089 39.769758 39.493894 39.218506 38.943569 38.669083 38.395017 38.121360 37.848076 37.575145 37.302528 37.030198 36.758111 36.486235 36.214526 35.942947 35.671452 35.400000
35.777778 36.086626 36.395518 36.704494 37.013600 37.322871 37.632353 37.942077 38.252084 38.562401 38.873066 39.184096 39.495525 39.807359 40.119628 40.432326 40.745475 41.059058 41.373085 41.687528 42.002386 42.317615 42.633203 42.949089 43.265248 43.581604 43.898115 44.214688 44.531266 44.847737 45.164028 45.480007 45.795586 46.110613 46.424983 46.738526 47.051119 47.362574 47.672751 47.981447 48.288505 48.593706 48.896880 49.197795 49.496267 49.792055 50.084964 50.374744 50.661195 50.944062 51.223140 51.498173 51.768956 52.035235 52.296809 52.553429 52.804900 53.050984 53.291495 53.526208 53.754950 53.977511 54.193733 54.403425 54.606445 54.802620 54.991828 55.173916 55.348780 55.516288 55.676352 55.828862 55.973747 56.110915 56.240311 56.361860 56.475521 56.581235 56.678973 56.768690 56.850364 56.923963 56.989473 57.046871 57.096149 57.137291 57.170293 57.195145 57.211847 57.220394 57.220787 57.213027 57.197116 57.173060 57.140863 57.100537 57.052087 56.995533 56.930883 56.858165 56.777394 56.688605 56.591822 56.487091 56.374445 56.253945 56.125633 55.989589 55.845867 55.694563 55.535749 55.369540 55.196023 55.015333 54.827576 54.632908 54.431453 54.223386 54.008849 53.788038 53.561111 53.328281 53.089721 52.845660 52.596284 52.341835 52.082507 51.818553 51.550174 51.277627 51.001117 50.720904 50.437191 50.150238 49.860243 49.567462 49.272086 48.974362 48.674472 48.372651 48.069069 47.763947 47.457442 47.149760 46.841040 46.531472 46.221179 45.910331 45.599036 45.287445 44.975646 44.663774 44.351899 44.040136 43.728539 43.417205 43.106172 42.795519 42.485268 42.175482 41.866170 41.557377 41.249102 40.941372 40.634176 40.327530 40.021409 39.715819 39.410726 39.106124 38.801974 38.498258 38.194933 37.891973 37.589329 37.286969 36.984841 36.682907 36.381116 36.079423 35.777778
36.155556 36.495340 36.835172 37.175101 37.515173 37.855436 38.195930 38.536705 38.877791 39.219236 39.561064 39.903316 40.246006 40.589171 40.932813 41.276959 41.621602 41.966757 42.312402 42.658544 43.005143 43.352194 43.699641 44.047464 44.395588 44.743979 45.092542 45.441226 45.789917 46.138545 46.486976 46.835121 47.182826 47.529981 47.876412 48.221991 48.566521 48.909857 49.251782 49.592131 49.930671 50.267219 50.601527 50.933396 51.262563 51.588818 51.911887 52.231551 52.547527 52.859591 53.167455 53.470894 53.769621 54.063410 54.351981 54.635112 54.912533 55.184031 55.449347 55.708283 55.960596 56.206102 56.444579 56.675860 56.899744 57.116086 57.324706 57.525478 57.718247 57.902908 58.079329 58.247423 58.407082 58.558236 58.700797 58.834713 58.959914 59.076363 59.184004 59.282812 59.372747 59.453792 59.525917 59.589113 59.643360 59.688653 59.724979 59.752336 59.770718 59.780125 59.780555 59.772011 59.754495 59.728010 59.692566 59.648166 59.594826 59.532554 59.461373 59.381293 59.292348 59.194557 59.087962 58.972592 58.848504 58.715738 58.574367 58.424445 58.266064 58.099293 57.924246 57.741009 57.549720 57.350483 57.143458 56.928772 56.706607 56.477110 56.240487 55.996903 55.746586 55.489719 55.226548 54.957274 54.682158 54.401412 54.115312 53.824079 53.527996 53.227290 52.922251 52.613105 52.300141 51.983586 51.663724 51.340774 51.015014 50.686653 50.355959 50.023128 49.688412 49.351993 49.014109 48.674922 48.334653 47.993445 47.651499 47.308942 46.965950 46.622631 46.279143 45.935572 45.592056 45.248663 44.905507 44.562641 44.220157 43.878091 43.536517 43.195454 42.854958 42.515033 42.175717 41.837003 41.498913 41.161426 40.824552 40.488260 40.152545 39.817368 39.482714 39.148536 38.814809 38.481481 38.148519 37.815866 37.483482 37.151310 36.819302 36.487401 36.155556
36.533333 36.904064 37.274849 37.645741 38.016795 38.388059 38.759588 39.131423 39.503617 39.876203 40.249230 40.622721 40.996718 41.371235 41.746306 42.121929 42.498132 42.874897 43.252239 43.630127 44.008562 44.387493 44.766907 45.146736 45.526950 45.907459 46.288216 46.669108 47.050071 47.430970 47.811718 48.192158 48.572183 48.951612 49.330317 49.708093 50.084791 50.460185 50.834103 51.206298 51.576580 51.944682 52.310395 52.673435 53.033579 53.390528 53.744046 54.093825 54.439619 54.781113 55.118056 55.450133 55.777091 56.098617 56.414464 56.724325 57.027961 57.325079 57.615451 57.898800 58.174916 58.443540 58.704481 58.957506 59.202442 59.439082 59.667277 59.886845 60.097660 60.299566 60.492460 60.676212 60.850739 61.015935 61.171737 61.318061 61.454861 61.582072 61.699661 61.807579 61.905807 61.994308 62.073071 62.142070 62.201301 62.250747 62.290406 62.320268 62.340334 62.350600 62.351067 62.341737 62.322611 62.293696 62.254994 62.206519 62.148273 62.080277 62.002539 61.915087 61.817934 61.711121 61.594670 61.468632 61.333042 61.187970 61.033461 60.869606 60.696468 60.514158 60.322758 60.122404 59.913199 59.695304 59.468846 59.234010 58.990946 58.739867 58.480945 58.214416 57.940475 57.659382 57.371349 57.076656 56.775531 56.468272 56.155119 55.836381 55.512306 55.183211 54.849348 54.511037 54.168529 53.822142 53.472121 53.118778 52.762350 52.403137 52.041365 51.677318 51.311207 50.943301 50.573789 50.202923 49.830872 49.457865 49.084052 48.709640 48.334755 47.959581 47.584225 47.208845 46.833527 46.458407 46.083550 45.709069 45.335009 44.961463 44.588456 44.216060 43.844285 43.473182 43.102747 42.733013 42.363961 41.995608 41.627924 41.260910 40.894527 40.528762 40.163567 39.798918 39.434761 39.071060 38.707757 38.344808 37.982151 37.619736 37.257500 36.895387 36.533333
36.911111 37.312799 37.714546 38.116414 38.518459 38.920743 39.323316 39.726238 40.129550 40.533310 40.937551 41.342323 41.747647 42.153569 42.560095 42.967260 43.375057 43.783510 44.192594 44.602321 45.012646 45.423565 45.835016 46.246977 46.659363 47.072133 47.485181 47.898445 48.311794 48.725145 49.138342 49.551280 49.963775 50.375700 50.786847 51.197062 51.606114 52.013826 52.419941 52.824260 53.226503 53.626451 54.023803 54.418320 54.809685 55.197644 55.581864 55.962078 56.337947 56.709194 57.075474 57.436508 57.791952 58.141529 58.484898 58.821790 59.151877 59.474900 59.790547 60.098576 60.398694 60.690679 60.974264 61.249250 61.515395 61.772525 62.020429 62.258957 62.487928 62.707217 62.916673 63.116195 63.305659 63.484988 63.654081 63.812884 63.961317 64.099343 64.226902 64.343970 64.450503 64.546488 64.631895 64.706716 64.770933 64.824543 64.867535 64.899908 64.921658 64.932785 64.933288 64.923170 64.902433 64.871081 64.829120 64.776555 64.713401 64.639661 64.555359 64.460505 64.355132 64.239257 64.112925 63.976165 63.829038 63.671586 63.503891 63.326009 63.138047 62.940081 62.732241 62.514628 62.287400 62.050680 61.804655 61.549475 61.285357 61.012476 60.731076 60.441358 60.143594 59.838007 59.524892 59.204494 58.877127 58.543052 58.202600 57.856042 57.503722 57.145916 56.782973 56.415173 56.042864 55.666322 55.285891 54.901838 54.514499 54.124127 53.731044 53.335489 52.937765 52.538091 52.136751 51.733942 51.329925 50.924876 50.519030 50.112539 49.705613 49.298380 48.891025 48.483652 48.076420 47.669410 47.262755 46.856514 46.450798 46.045643 45.641137 45.237299 44.834192 44.431818 44.030221 43.629388 43.229342 42.830057 42.431541 42.033752 41.636685 41.240289 40.844542 40.449388 40.054793 39.660694 39.267046 38.873782 38.480850 38.088180 37.695712 37.303378 36.911111
37.288889 37.721542 38.154263 38.587115 39.020167 39.453478 39.887117 40.321133 40.755594 41.190540 41.626033 42.062103 42.498804 42.936153 43.374196 43.812934 44.252401 44.692582 45.133498 45.575115 46.017437 46.460411 46.904022 47.348195 47.792897 48.238026 48.683529 49.129278 49.575199 50.021136 50.466989 50.912576 51.357771 51.802364 52.246204 52.689052 53.130730 53.570973 54.009577 54.446251 54.880767 55.312808 55.742126 56.168383 56.591309 57.010550 57.425820 57.836752 58.243048 58.644333 59.040302 59.430578 59.814854 60.192758 60.563986 60.928176 61.285035 61.634214 61.975437 62.308375 62.632774 62.948329 63.254809 63.551939 63.839515 64.117293 64.385098 64.642718 64.890007 65.126786 65.352938 65.568313 65.772821 65.966344 66.148813 66.320137 66.480268 66.629136 66.766712 66.892944 67.007816 67.111292 67.203365 67.284011 67.353227 67.411002 67.457334 67.492217 67.515652 67.527639 67.528178 67.517271 67.494920 67.461129 67.415902 67.359247 67.291168 67.211681 67.120792 67.018528 66.904900 66.779945 66.643686 66.496175 66.337445 66.167571 65.986602 65.794634 65.591736 65.378033 65.153617 64.918640 64.673221 64.417545 64.151759 63.876079 63.590682 63.295816 62.991685 62.678571 62.356704 62.026393 61.687894 61.341541 60.987609 60.626453 60.258363 59.883710 59.502795 59.115996 58.723620 58.326047 57.923582 57.516606 57.105415 56.690380 56.271788 55.849997 55.425276 54.997965 54.568315 54.136644 53.703180 53.268219 52.831962 52.394679 51.956546 51.517805 51.078608 50.639165 50.199603 49.760106 49.320772 48.881759 48.443141 48.005047 47.567528 47.130688 46.694556 46.259212 45.824665 45.390970 44.958120 44.526150 44.095035 43.664790 43.235377 42.806795 42.378993 41.951953 41.525616 41.099950 40.674888 40.250386 39.826372 39.402791 38.979568 38.556641 38.133933 37.711374 37.288889
37.666667 38.130294 38.593994 39.057843 39.521907 39.986264 40.450974 40.916111 41.381728 41.847895 42.314653 42.782066 43.250162 43.718996 44.188582 44.658964 45.130137 45.602133 46.074929 46.548540 47.022921 47.498070 47.973919 48.450445 48.927556 49.405207 49.883278 50.361699 50.840323 51.319056 51.797718 52.276189 52.754259 53.231779 53.708509 54.184272 54.658796 55.131875 55.603210 56.072566 56.539615 57.004097 57.465659 57.924017 58.378797 58.829696 59.276320 59.718352 60.155386 60.587093 61.013063 61.432962 61.846380 62.252983 62.652370 63.044216 63.428130 63.803804 64.170868 64.529032 64.877952 65.217363 65.546952 65.866483 66.175675 66.474324 66.762185 67.039087 67.304821 67.559248 67.802194 68.033550 68.253177 68.460993 68.656890 68.840810 69.012672 69.172438 69.320050 69.455486 69.578705 69.689698 69.788438 69.874924 69.949139 70.011086 70.060756 70.098153 70.123273 70.136120 70.136694 70.124996 70.101030 70.064797 70.016303 69.955548 69.882544 69.797293 69.699814 69.590112 69.468219 69.334145 69.187937 69.029618 68.859252 68.676878 68.482582 68.276425 68.058519 67.828949 67.587857 67.335356 67.071622 66.796798 66.511096 66.214690 65.907829 65.590719 65.263646 64.926845 64.580636 64.225284 63.861137 63.488488 63.107708 62.719110 62.323086 61.919963 61.510147 61.093971 60.671850 60.244118 59.811189 59.373394 58.931140 58.484747 58.034611 57.581036 57.124399 56.664985 56.203149 55.739153 55.273327 54.805905 54.337190 53.867388 53.396774 52.925523 52.453880 51.981992 51.510072 51.038238 50.566673 50.095469 49.624777 49.154664 48.685252 48.216582 47.748751 47.281778 46.815731 46.350611 45.886463 45.423268 44.961050 44.499773 44.039442 43.580007 43.121456 42.663726 42.206790 41.750577 41.295044 40.840114 40.385733 39.931818 39.478305 39.025110 38.572161 38.119373 37.666667