# vtk DataFile Version 3.0
Steady-state temperature (Jacobi)
ASCII
DATASET STRUCTURED_POINTS
DIMENSIONS 181 181 1
ORIGIN 0.0 0.0 0.0
SPACING 0.05 0.05 1.0
POINT_DATA 32761
SCALARS Temperature float 1
LOOKUP_TABLE default
32.000000 32.000000 32.000000 32.000000 32.000000 32.000000 32.000000 32.000000
32.000000 32.000000 32.000000 32.000000 32.000000 32.000000 32.000000 32.000000
32.000000 32.000000 32.000000 32.000000 32.000000 32.000000 32.000000 32.000000
32.000000 32.000000 32.000000 32.000000 32.000000 32.000000 32.000000 32.000000
32.000000 32.000000 32.000000 32.000000 32.000000 32.000000 32.000000 32.000000
32.000000 32.000000 32.000000 32.000000 32.000000 32.000000 32.000000 32.000000
32.000000 32.000000 32.000000 32.000000 32.000000 32.000000 32.000000 32.000000
32.000000 32.000000 32.000000 32.000000 32.000000 32.000000 32.000000 32.000000
32.000000 32.000000 32.000000 32.000000 32.000000 32.000000 32.000000 32.000000
32.000000 32.000000 32.000000 32.000000 32.000000 32.000000 32.000000 32.000000
32.000000 32.000000 32.000000 32.000000 32.000000 32.000000 32.000000 32.000000
32.000000 32.000000 32.000000 32.000000 32.000000 32.000000 32.000000 32.000000
32.000000 32.000000 32.000000 32.000000 32.000000 32.000000 32.000000 32.000000
32.000000 32.000000 32.000000 32.000000 32.000000 32.000000 32.000000 32.000000
32.000000 32.000000 32.000000 32.000000 32.000000 32.000000 32.000000 32.000000
32.000000 32.000000 32.000000 32.000000 32.000000 32.000000 32.000000 32.000000
32.000000 32.000000 32.000000 32.000000 32.000000 32.000000 32.000000 32.000000
32.000000 32.000000 32.000000 32.000000 32.000000 32.000000 32.000000 32.000000
32.000000 32.000000 32.000000 32.000000 32.000000 32.000000 32.000000 32.000000
32.000000 32.000000 32.000000 32.000000 32.000000 32.000000 32.000000 32.000000
32.000000 32.000000 32.000000 32.000000 32.000000 32.000000 32.000000 32.000000
32.000000 32.000000 32.000000 32.000000 32.000000 32.000000 32.000000 32.000000
32.000000 32.000000 32.000000 32.000000 32.000000
32.377778 32.401020 32.424275 32.447556 32.470874 32.494245 32.517678 32.541189
32.564784 32.588480 32.612283 32.636208 32.660260 32.684453 32.708789 32.733284
32.757936 32.782760 32.807751 32.832925 32.858272 32.883809 32.909521 32.935424
32.961503 32.987768 33.014203 33.040817 33.067590 33.094530 33.121611 33.148843
33.176195 33.203674 33.231248 33.258921 33.286658 33.314461 33.342292 33.370152
33.398001 33.425836 33.453615 33.481335 33.508953 33.536461 33.563817 33.591012
33.618002 33.644777 33.671293 33.697540 33.723472 33.749079 33.774317 33.799176
33.823612 33.847614 33.871141 33.894184 33.916701 33.938684 33.960096 33.980927
34.001142 34.020735 34.039673 34.057950 34.075536 34.092427 34.108595 34.124038
34.138731 34.152671 34.165839 34.178233 34.189834 34.200642 34.210641 34.219832
34.228202 34.235751 34.242470 34.248358 34.253407 34.257620 34.260989 34.263516
34.265197 34.266033 34.266022 34.265166 34.263463 34.260916 34.257526 34.253294
34.248225 34.242319 34.235583 34.228017 34.219631 34.210425 34.200412 34.189592
34.177980 34.165577 34.152402 34.138456 34.123760 34.108317 34.092150 34.075264
34.057685 34.039418 34.020494 34.000918 33.980724 33.959917 33.938536 33.916586
33.894107 33.871108 33.847630 33.823682 33.799308 33.774516 33.749351 33.723824
33.697980 33.671829 33.645417 33.618753 33.591884 33.564818 33.537602 33.510242
33.482784 33.455233 33.427634 33.399991 33.372347 33.344703 33.317100 33.289538
33.262056 33.234651 33.207359 33.180177 33.153136 33.126231 33.099492 33.072909
33.046511 33.020286 32.994258 32.968416 32.942778 32.917333 32.892096 32.867053
32.842217 32.817572 32.793129 32.768870 32.744803 32.720909 32.697194 32.673639
32.650244 32.626993 32.603884 32.580897 32.558030 32.535264 32.512593 32.489999
32.467474 32.445002 32.422572 32.400168 32.377778
32.755556 32.802049 32.848569 32.895140 32.941789 32.988539 33.035418 33.082445
33.129651 33.177049 33.224672 33.272528 33.320650 33.369041 33.417735 33.466728
33.516055 33.565707 33.615715 33.666066 33.716789 33.767865 33.819321 33.871131
33.923320 33.975856 34.028761 34.081994 34.135577 34.189462 34.243665 34.298134
34.352881 34.407846 34.463038 34.518392 34.573911 34.629526 34.685236 34.740966
34.796712 34.852392 34.908001 34.963452 35.018737 35.073767 35.128528 35.182931
35.236961 35.290524 35.343605 35.396110 35.448023 35.499250 35.549773 35.599502
35.648419 35.696435 35.743532 35.789626 35.834701 35.878676 35.921536 35.963205
36.003671 36.042863 36.080770 36.117329 36.152529 36.186314 36.218675 36.249562
36.278970 36.306853 36.333208 36.357995 36.381213 36.402829 36.422841 36.441222
36.457973 36.473070 36.486515 36.498290 36.508396 36.516819 36.523562 36.528615
36.531980 36.533652 36.533631 36.531917 36.528511 36.523417 36.516633 36.508170
36.498026 36.486214 36.472733 36.457602 36.440820 36.422409 36.402369 36.380729
36.357489 36.332684 36.306315 36.278422 36.249008 36.218119 36.185761 36.151985
36.116799 36.080261 36.042382 36.003224 35.962800 35.921181 35.878379 35.834472
35.789474 35.743467 35.696468 35.648561 35.599766 35.550171 35.499795 35.448729
35.396993 35.344678 35.291804 35.238464 35.184676 35.130532 35.076049 35.021317
34.966350 34.911238 34.855991 34.800694 34.745356 34.690059 34.634805 34.579673
34.524663 34.469846 34.415218 34.360847 34.306723 34.252907 34.199387 34.146218
34.093383 34.040929 33.988838 33.937150 33.885841 33.834948 33.784443 33.734354
33.684653 33.635361 33.586447 33.537927 33.489768 33.441979 33.394526 33.347413
33.300604 33.254099 33.207861 33.161884 33.116133 33.070596 33.025239 32.980046
32.934984 32.890033 32.845161 32.800345 32.755556
33.133333 33.203099 33.272902 33.342784 33.412780 33.482934 33.553273 33.623846
33.694674 33.765807 33.837260 33.909083 33.981284 34.053914 34.126972 34.200511
34.274520 34.349049 34.424081 34.499663 34.575769 34.652443 34.729649 34.807430
34.885738 34.964612 35.043995 35.123921 35.204324 35.285231 35.366568 35.448356
35.530510 35.613047 35.695873 35.778997 35.862317 35.945836 36.029445 36.113139
36.196803 36.280427 36.363887 36.447170 36.530146 36.612797 36.694989 36.776700
36.857794 36.938245 37.017916 37.096779 37.174696 37.251638 37.327470 37.402162
37.475581 37.547699 37.618387 37.687617 37.755267 37.821312 37.885636 37.948216
38.008945 38.067802 38.124689 38.179588 38.232410 38.283142 38.331702 38.378081
38.422207 38.464073 38.503615 38.540831 38.575666 38.608119 38.638143 38.665738
38.690868 38.713533 38.733702 38.751379 38.766538 38.779184 38.789299 38.796884
38.801931 38.804441 38.804409 38.801837 38.796728 38.789080 38.778905 38.766201
38.750983 38.733251 38.713028 38.690313 38.665136 38.637495 38.607431 38.574942
38.540075 38.502832 38.463268 38.421386 38.377252 38.330870 38.282315 38.231597
38.178796 38.123928 38.067082 38.008277 37.947611 37.885106 37.820870 37.754926
37.687392 37.618292 37.547752 37.475799 37.402562 37.328071 37.252460 37.175759
37.098105 37.019529 36.940169 36.860053 36.779321 36.697998 36.616223 36.534019
36.451520 36.368746 36.285829 36.202781 36.119729 36.036682 35.953759 35.870964
35.788408 35.706089 35.624111 35.542464 35.461244 35.380435 35.300125 35.220290
35.141009 35.062253 34.984091 34.906488 34.829502 34.753096 34.677317 34.602122
34.527551 34.453557 34.380168 34.307336 34.235080 34.163349 34.092152 34.021439
33.951210 33.881411 33.812038 33.743037 33.674393 33.606055 33.538002 33.470183
33.402571 33.335117 33.267789 33.200540 33.133333
33.511111 33.604176 33.697294 33.790513 33.883892 33.977471 34.071312 34.165449
34.259946 34.354829 34.450164 34.545967 34.642306 34.739186 34.836676 34.934768
35.033531 35.132947 35.233081 35.333904 35.435477 35.537760 35.640809 35.744570
35.849097 35.954321 36.060289 36.166921 36.274257 36.382203 36.490792 36.599918
36.709606 36.819736 36.930327 37.041246 37.152502 37.263954 37.375601 37.487292
37.599018 37.710619 37.822078 37.933227 38.044044 38.154353 38.264126 38.373184
38.481493 38.588870 38.695279 38.800537 38.904604 39.007299 39.108580 39.208270
39.306327 39.402579 39.496985 39.589380 39.679727 39.767868 39.853768 39.937281
40.018376 40.096916 40.172876 40.246131 40.316660 40.384348 40.449182 40.511058
40.569968 40.625819 40.678606 40.728252 40.774752 40.818039 40.858115 40.894923
40.928463 40.958692 40.985612 41.009186 41.029419 41.046283 41.059782 41.069899
41.076634 41.079981 41.079939 41.076509 41.069691 41.059492 41.045913 41.028970
41.008661 40.985012 40.958022 40.927726 40.894121 40.857255 40.817125 40.773789
40.727246 40.677565 40.624749 40.568877 40.509956 40.448076 40.383249 40.315579
40.245079 40.171867 40.095961 40.017490 39.936479 39.853067 39.767283 39.679278
39.589085 39.496866 39.402655 39.306623 39.208808 39.109387 39.008399 38.906028
38.802311 38.697436 38.591440 38.484511 38.376684 38.268145 38.158928 38.049215
37.939034 37.828564 37.717827 37.606996 37.496084 37.385258 37.274524 37.164039
37.053801 36.943956 36.834495 36.725552 36.617110 36.509291 36.402070 36.295555
36.189715 36.084644 35.980303 35.876775 35.774011 35.672084 35.570937 35.470630
35.371102 35.272398 35.174455 35.077304 34.980877 34.885196 34.790190 34.695868
34.602158 34.509057 34.416495 34.324457 34.232872 34.141719 34.050927 33.960464
33.870264 33.780287 33.690469 33.600763 33.511111
33.888889 34.005293 34.121761 34.238363 34.355154 34.472210 34.589578 34.707337
34.825525 34.944225 35.063461 35.183319 35.303811 35.425024 35.546957 35.669695
35.793225 35.917627 36.042876 36.169048 36.296102 36.424111 36.553016 36.682886
36.813645 36.945356 37.077926 37.211409 37.345698 37.480837 37.616703 37.753330
37.890578 38.028473 38.166859 38.305751 38.444979 38.584548 38.724274 38.864151
39.003983 39.143755 39.283260 39.422474 39.561180 39.699348 39.836752 39.973356
40.108932 40.243434 40.376633 40.508482 40.638750 40.767387 40.894167 41.019039
41.141780 41.262341 41.380508 41.496235 41.609315 41.719707 41.827216 41.931805
42.033293 42.131648 42.226702 42.318431 42.406681 42.491433 42.572550 42.650018
42.723717 42.793635 42.859669 42.921813 42.979977 43.034159 43.084283 43.130350
43.172298 43.210129 43.243794 43.273296 43.298597 43.319700 43.336581 43.349240
43.357662 43.361850 43.361798 43.357506 43.348981 43.336219 43.319239 43.298037
43.272641 43.243047 43.209294 43.171379 43.129352 43.083212 43.033021 42.978778
42.920562 42.858373 42.792304 42.722360 42.648647 42.571175 42.490067 42.405337
42.317124 42.225448 42.130462 42.032194 41.930811 41.826347 41.718985 41.608762
41.495875 41.380367 41.262446 41.142158 41.019721 40.895184 40.768773 40.640538
40.510710 40.379339 40.246657 40.112714 39.977742 39.841786 39.705077 39.567654
39.429744 39.291378 39.152778 39.013965 38.875154 38.736356 38.597774 38.459412
38.321458 38.183907 38.046935 37.910523 37.774834 37.639840 37.505686 37.372336
37.239918 37.108385 36.977851 36.848259 36.719706 36.592128 36.465604 36.340063
36.215570 36.092045 35.969538 35.847966 35.727361 35.607637 35.488812 35.370796
35.253593 35.137114 35.021348 34.906205 34.791663 34.677633 34.564081 34.450921
34.338109 34.225561 34.113224 34.001021 33.888889
34.266667 34.406456 34.546327 34.686350 34.826614 34.967182 35.108146 35.249557
35.391514 35.534054 35.677279 35.821212 35.965956 36.111519 36.258004 36.405404
36.553818 36.703223 36.853715 37.005252 37.157927 37.311678 37.466592 37.622588
37.779744 37.937961 38.097309 38.257668 38.419097 38.581456 38.744795 38.908955
39.073972 39.239668 39.406068 39.572975 39.740402 39.908135 40.076173 40.244288
40.412467 40.580467 40.748264 40.915602 41.082448 41.248536 41.413824 41.578039
41.741130 41.902823 42.063060 42.221564 42.378275 42.532918 42.685431 42.835543
42.983194 43.128120 43.270263 43.409370 43.545386 43.678072 43.807378 43.933079
44.055133 44.173331 44.287637 44.397861 44.503974 44.605804 44.703330 44.796399
44.884996 44.968985 45.048360 45.123002 45.192909 45.257982 45.318221 45.373542
45.423950 45.469378 45.509829 45.545253 45.575653 45.600991 45.621272 45.636471
45.646591 45.651619 45.651556 45.646404 45.636161 45.620841 45.600440 45.574984
45.544471 45.508937 45.468381 45.422853 45.372351 45.316941 45.256623 45.191478
45.121508 45.046813 44.967396 44.883376 44.794762 44.701690 44.604175 44.502372
44.396303 44.286142 44.171919 44.053825 43.931898 43.806347 43.677217 43.544735
43.408951 43.270107 43.128259 42.983661 42.836375 42.686665 42.534594 42.380435
42.224251 42.066321 41.906705 41.745684 41.583315 41.419879 41.255426 41.090232
40.924341 40.758022 40.591309 40.424463 40.257507 40.090689 39.924022 39.757739
39.591840 39.426545 39.261840 39.097926 38.934779 38.772582 38.611295 38.451085
38.291900 38.133886 37.976980 37.821308 37.666799 37.513556 37.361499 37.210714
37.061110 36.912755 36.765552 36.619548 36.474643 36.330865 36.188109 36.046387
35.905591 35.765718 35.626658 35.488392 35.350811 35.213882 35.077499 34.941615
34.806127 34.670976 34.536066 34.401326 34.266667
34.644444 34.807678 34.971002 35.134515 35.298295 35.462451 35.627047 35.792198
35.957954 36.124434 36.291674 36.459793 36.628810 36.798847 36.969904 37.142100
37.315418 37.489973 37.665727 37.842791 38.021105 38.200774 38.381715 38.564026
38.747602 38.932529 39.118680 39.306131 39.494730 39.684540 39.875388 40.067324
40.260150 40.453903 40.648364 40.843553 41.039232 41.235406 41.431816 41.628455
41.825046 42.021567 42.217725 42.413486 42.608545 42.802855 42.996103 43.188230
43.378918 43.568100 43.755453 43.940907 44.124138 44.305074 44.483394 44.659025
44.831655 45.001211 45.167392 45.330130 45.489138 45.644352 45.795502 45.942533
46.085191 46.223430 46.357018 46.485917 46.609914 46.728982 46.842931 46.951740
47.055242 47.153424 47.246141 47.333385 47.415033 47.491083 47.561430 47.626077
47.684938 47.738018 47.785248 47.826635 47.862127 47.891730 47.915407 47.933163
47.944977 47.950852 47.950780 47.944761 47.932804 47.914907 47.891091 47.861352
47.825728 47.784213 47.736861 47.683664 47.624694 47.559946 47.489506 47.413373
47.331653 47.244347 47.151582 47.053365 46.949843 46.841030 46.727095 46.608059
46.484114 46.355290 46.221799 46.083681 45.941171 45.794316 45.643372 45.488395
45.329659 45.167227 45.001391 44.832218 44.660014 44.484852 44.307049 44.126677
43.944062 43.759276 43.572649 43.384249 43.194407 43.003187 42.810914 42.617647
42.423703 42.229130 42.034238 41.839063 41.643900 41.448774 41.253965 41.059481
40.865588 40.672278 40.479797 40.288123 40.097480 39.907833 39.719383 39.532079
39.346101 39.161385 38.978086 38.796128 38.615644 38.436545 38.258940 38.082731
37.908005 37.734653 37.562742 37.392155 37.222937 37.054966 36.888266 36.722712
36.558307 36.394926 36.232553 36.071061 35.910419 35.750500 35.591257 35.432568
35.274369 35.116546 34.959019 34.801682 34.644444
35.022222 35.208963 35.395812 35.582868 35.770249 35.958038 36.146363 36.335291
36.524955 36.715407 36.906782 37.099114 37.292541 37.487074 37.682853 37.879867
38.078253 38.277978 38.479174 38.681784 38.885933 39.091541 39.298723 39.507373
39.717596 39.929260 40.142459 40.357033 40.573062 40.790361 41.008994 41.228750
41.449676 41.671537 41.894363 42.117893 42.342141 42.566822 42.791934 43.017170
43.242511 43.467632 43.692497 43.916766 44.140388 44.363010 44.584569 44.804702
45.023336 45.240101 45.454918 45.667414 45.877506 46.084825 46.289282 46.490517
46.688442 46.882707 47.073228 47.259668 47.441950 47.619754 47.793011 47.961422
48.124927 48.283248 48.436337 48.583940 48.726019 48.862345 48.992890 49.117451
49.236010 49.348389 49.454577 49.554422 49.647920 49.734941 49.815487 49.889450
49.956837 50.017560 50.071626 50.118968 50.159593 50.193453 50.220553 50.240862
50.254383 50.261102 50.261020 50.254138 50.240454 50.219984 50.192726 50.158713
50.117937 50.070451 50.016246 49.955391 49.887881 49.813802 49.733151 49.646036
49.552455 49.452542 49.346299 49.233881 49.115300 48.990735 48.860206 48.723918
48.581899 48.434382 48.281404 48.123223 47.959887 47.791678 47.618657 47.441125
47.259152 47.073064 46.882936 46.689111 46.491671 46.290974 46.087106 45.880434
45.671045 45.459314 45.245325 45.029456 44.811787 44.592693 44.372247 44.150818
43.928469 43.705560 43.482141 43.258559 43.034850 42.811344 42.588062 42.365315
42.143107 41.921727 41.701163 41.481681 41.263249 41.046111 40.830218 40.615787
40.402753 40.191307 39.981368 39.773102 39.566411 39.361437 39.158069 38.956420
38.756372 38.558010 38.361206 38.166023 37.972323 37.780145 37.589348 37.399945
37.211793 37.024884 36.839073 36.654332 36.470516 36.287577 36.105375 35.923844
35.742849 35.562307 35.382090 35.202102 35.022222
35.400000 35.610324 35.820764 36.031451 36.242487 36.454011 36.666111 36.878931
37.092542 37.307096 37.522640 37.739330 37.957194 38.176386 38.396910 38.618921
38.842397 39.067488 39.294147 39.522517 39.752524 39.984302 40.217749 40.452988
40.689887 40.928557 41.168837 41.410822 41.654321 41.899414 42.145878 42.393777
42.642858 42.893166 43.144421 43.396646 43.649535 43.903092 44.156986 44.411200
44.665379 44.919491 45.173159 45.426333 45.678621 45.929956 46.179934 46.428474
46.675163 46.919911 47.162300 47.402233 47.639293 47.873378 48.104075 48.331284
48.554601 48.773928 48.988876 49.199352 49.404985 49.605691 49.801121 49.991200
50.175604 50.354270 50.526900 50.693444 50.853633 51.007427 51.154586 51.295084
51.428708 51.555442 51.675103 51.787683 51.893025 51.991130 52.081866 52.165238
52.241138 52.309576 52.370466 52.423818 52.469566 52.507721 52.538237 52.561120
52.576346 52.583917 52.583826 52.576072 52.560665 52.537601 52.506910 52.468583
52.422667 52.369154 52.308109 52.239524 52.163485 52.079985 51.989132 51.890922
51.785488 51.672832 51.553111 51.426333 51.292685 51.152184 51.005044 50.851293
50.691173 50.524725 50.352221 50.173713 49.989500 49.799648 49.604485 49.404084
49.198801 48.988720 48.774216 48.555382 48.332614 48.106009 47.875976 47.642617
47.406351 47.167277 46.925822 46.682080 46.436479 46.189106 45.940382 45.690388
45.439535 45.187889 44.935851 44.683469 44.431127 44.178859 43.927027 43.675645
43.425053 43.175246 42.926538 42.678905 42.432634 42.187680 41.944302 41.702435
41.462310 41.223844 40.987236 40.752388 40.519469 40.288364 40.059214 39.831891
39.606504 39.382914 39.161204 38.941223 38.723027 38.506460 38.291548 38.078131
37.866212 37.655626 37.446353 37.238228 37.031208 36.825132 36.619933 36.415457
36.211619 36.008268 35.805305 35.602588 35.400000
35.777778 36.011762 36.245885 36.480269 36.715066 36.950381 37.186375 37.423135
37.660829 37.899523 38.139389 38.380470 38.622941 38.866819 39.112279 39.359311
39.608086 39.858566 40.110917 40.365071 40.621184 40.879158 41.139139 41.400996
41.664861 41.930572 42.198243 42.467680 42.738981 43.011916 43.286563 43.562662
43.840270 44.119092 44.399165 44.680162 44.962099 45.244619 45.527715 45.811003
46.094455 46.377664 46.660579 46.942772 47.224175 47.504343 47.783192 48.060263
48.335460 48.608316 48.878725 49.146219 49.410685 49.671656 49.929019 50.182316
50.431433 50.675927 50.915689 51.150295 51.379644 51.603333 51.821273 52.033088
52.238700 52.437764 52.630216 52.815741 52.994289 53.165577 53.329570 53.486019
53.634898 53.775992 53.909288 54.034600 54.151923 54.261102 54.362140 54.454907
54.539412 54.615551 54.683334 54.742682 54.793604 54.836043 54.870007 54.895459
54.912405 54.920826 54.920725 54.912103 54.894957 54.869307 54.835149 54.792520
54.741413 54.681888 54.613934 54.537633 54.452975 54.360067 54.258900 54.149607
54.032182 53.906788 53.773425 53.632285 53.483379 53.326929 53.162958 52.991718
52.813247 52.627831 52.435520 52.236632 52.031233 51.819672 51.602027 51.378679
51.149719 50.915553 50.676284 50.432339 50.183831 49.931207 49.674582 49.414418
49.150833 48.884296 48.614923 48.343188 48.069198 47.793425 47.515969 47.237293
46.957482 46.676990 46.395884 46.114601 45.833190 45.552066 45.271259 44.991159
44.711773 44.433466 44.156223 43.880377 43.605891 43.333068 43.061849 42.792503
42.524951 42.259429 41.995838 41.734380 41.474938 41.217681 40.962475 40.709457
40.458479 40.209645 39.962794 39.718002 39.475096 39.234122 38.994902 38.757452
38.521590 38.287304 38.054411 37.822873 37.592510 37.363258 37.134940 36.907473
36.680684 36.454469 36.228667 36.003153 35.777778
36.155556 36.413293 36.671176 36.929365 37.187987 37.447216 37.707160 37.968000
38.229822 38.492815 38.757041 39.022691 39.289802 39.558565 39.828987 40.101259
40.375358 40.651469 40.929536 41.209736 41.491982 41.776438 42.062982 42.351766
42.642631 42.935714 43.230818 43.528062 43.827213 44.128368 44.431258 44.735957
45.042160 45.349917 45.658889 45.969100 46.280176 46.592118 46.904520 47.217358
47.530197 47.842990 48.155275 48.466985 48.777636 49.087140 49.394998 49.701105
50.004951 50.306417 50.604988 50.900537 51.192547 51.480887 51.765048 52.044898
52.319940 52.590045 52.854735 53.113889 53.367052 53.614114 53.854648 54.088558
54.315447 54.535235 54.747560 54.952358 55.149301 55.338342 55.519191 55.691815
55.855960 56.011607 56.158537 56.296743 56.426039 56.546427 56.657753 56.760025
56.853118 56.937044 57.011704 57.077112 57.133194 57.179962 57.217365 57.245411
57.264072 57.273352 57.273242 57.263742 57.244864 57.216601 57.178987 57.132012
57.075729 57.010127 56.935281 56.851178 56.757920 56.655494 56.544029 56.423515
56.294111 56.155814 56.008813 55.853116 55.688945 55.516319 55.335496 55.146509
54.949652 54.744974 54.532806 54.313212 54.086559 53.852928 53.612721 53.366034
53.113300 52.854629 52.590483 52.320982 52.046612 51.767501 51.484153 51.196701
50.905660 50.611164 50.313734 50.013499 49.710983 49.406304 49.099979 48.792115
48.483219 48.173379 47.863086 47.552410 47.241819 46.931360 46.621479 46.312198
46.003932 45.696679 45.390825 45.086340 44.783575 44.482479 44.183366 43.886159
43.591137 43.298200 43.007590 42.719186 42.433193 42.149470 41.868187 41.589184
41.312596 41.038250 40.766243 40.496392 40.228760 39.963156 39.699609 39.437923
39.178095 38.919926 38.663386 38.408273 38.154530 37.901960 37.650478 37.399893
37.150099 36.900910 36.652202 36.403798 36.155556
36.533333 36.814915 37.096666 37.378736 37.661309 37.944516 38.228551 38.513524
38.799637 39.086973 39.375742 39.665997 39.957951 40.251630 40.547241 40.844781
41.144454 41.446220 41.750278 42.056551 42.365228 42.676195 42.989627 43.305371
43.623586 43.944081 44.266994 44.592093 44.919495 45.248929 45.580486 45.913856
46.249105 46.585880 46.924223 47.263744 47.604454 47.945927 48.288148 48.630658
48.973413 49.315924 49.658123 49.999493 50.339942 50.678935 51.016358 51.351658
51.684709 52.014945 52.342227 52.665989 52.986083 53.301946 53.613429 53.919977
54.221444 54.517295 54.807387 55.091210 55.368632 55.639171 55.902710 56.158800
56.407342 56.647921 56.880457 57.104576 57.320215 57.527041 57.725008 57.913824
58.093461 58.263664 58.424420 58.575513 58.716942 58.848525 58.970270 59.082028
59.183813 59.275506 59.357123 59.428573 59.489873 59.540955 59.581833 59.612465
59.632859 59.642995 59.642876 59.632503 59.611873 59.581009 59.539902 59.488596
59.427079 59.355420 59.273602 59.181719 59.079755 58.967832 58.845936 58.714219
58.572673 58.421483 58.260650 58.090395 57.910730 57.721915 57.523976 57.317212
57.101668 56.877682 56.645316 56.404951 56.156667 55.900884 55.637700 55.367573
55.090618 54.807325 54.517825 54.222636 53.921900 53.616160 53.305564 52.990672
52.671634 52.349022 52.022984 51.694094 51.362492 51.028752 50.693000 50.355800
50.017262 49.677935 49.337909 48.997710 48.657406 48.317496 47.978023 47.639456
47.301810 46.965522 46.630578 46.297377 45.965879 45.636446 45.309007 44.983887
44.660989 44.340595 44.022586 43.707203 43.394304 43.084090 42.776398 42.471391
42.168888 41.869012 41.571568 41.276643 40.984030 40.693778 40.405672 40.119728
39.835727 39.553649 39.273274 38.994552 38.717265 38.441333 38.166542 37.892786
37.619860 37.347633 37.075908 36.804537 36.533333
36.911111 37.216643 37.522350 37.828425 38.135023 38.442350 38.750540 39.059809
39.370263 39.682127 39.995479 40.310548 40.627380 40.946205 41.267036 41.590100
41.915374 42.243078 42.573153 42.905808 43.240944 43.578759 43.919110 44.262180
44.607784 44.956083 45.306851 45.660226 46.015938 46.374098 46.734394 47.096910
47.461287 47.827583 48.195396 48.564752 48.935209 49.306762 49.678932 50.051681
50.424495 50.797309 51.169576 51.541203 51.911618 52.280704 52.647865 53.012967
53.375400 53.735011 54.091184 54.443755 54.792109 55.136076 55.475048 55.808855
56.136905 56.459035 56.774673 57.083666 57.385473 57.679955 57.966606 58.245304
58.515583 58.777340 59.030152 59.273938 59.508316 59.733230 59.948341 60.153612
60.348749 60.533732 60.708310 60.872479 61.026026 61.168958 61.301101 61.422469
61.532922 61.632480 61.721030 61.798595 61.865092 61.920538 61.964878 61.998125
62.020245 62.031246 62.031119 62.019863 61.997490 61.963994 61.919410 61.863724
61.796995 61.719205 61.630440 61.530679 61.420035 61.298490 61.166186 61.023110
60.869439 60.705167 60.530509 60.345470 60.150305 59.945035 59.729959 59.505112
59.270839 59.027197 58.774574 58.513048 58.243051 57.964684 57.678422 57.384385
57.083087 56.774666 56.459672 56.138259 55.811003 55.478070 55.140061 54.797145
54.449938 54.098611 53.743788 53.385634 53.024774 52.661360 52.296012 51.928866
51.560526 51.191110 50.821200 50.450889 50.080734 49.710799 49.341612 48.973206
48.606073 48.240217 47.876092 47.513668 47.153360 46.795107 46.439281 46.085792
45.734968 45.386690 45.041243 44.698482 44.358646 44.021570 43.687448 43.356092
43.027656 42.701935 42.379038 42.058750 41.741138 41.425975 41.113293 40.802854
40.494655 40.188455 39.884216 39.581696 39.280824 38.981364 38.683214 38.386142
38.090021 37.794629 37.499814 37.205366 36.911111
37.288889 37.618473 37.948257 38.278422 38.609186 38.940705 39.273211 39.606833
39.941813 40.278253 40.616397 40.956318 41.298262 41.642266 41.988577 42.337193
42.688356 43.042025 43.398434 43.757498 44.119440 44.484132 44.851780 45.222211
45.595609 45.971759 46.350819 46.732526 47.117014 47.503971 47.893502 48.285247
48.679280 49.075195 49.473033 49.872340 50.273125 50.674892 51.077613 51.480752
51.884250 52.287532 52.690508 53.092571 53.493603 53.892971 54.290531 54.685630
55.078105 55.467290 55.853007 56.234586 56.611840 56.984103 57.351186 57.712434
58.067662 58.416239 58.757985 59.092298 59.419016 59.737570 60.047817 60.349229
60.641685 60.924702 61.198184 61.461694 61.715161 61.958198 62.190756 62.412498
62.623395 62.823158 63.011776 63.189006 63.354852 63.509111 63.651798 63.782750
63.901987 64.009379 64.104952 64.188605 64.260362 64.320152 64.367994 64.403842
64.427708 64.439571 64.439435 64.427302 64.403166 64.367053 64.318950 64.258906
64.186901 64.103010 64.007209 63.899600 63.780160 63.649021 63.506163 63.351752
63.185774 63.008436 62.819733 62.619913 62.408988 62.187251 61.954731 61.711769
61.458417 61.195064 60.921785 60.639020 60.346867 60.045815 59.735987 59.417914
59.091744 58.758050 58.416997 58.069194 57.714821 57.354516 56.988469 56.617340
56.241320 55.861083 55.476819 55.089205 54.698422 54.305144 53.909535 53.512260
53.113460 52.713782 52.313342 51.912759 51.512123 51.112021 50.712508 50.314137
49.916930 49.521398 49.127530 48.735791 48.346139 47.958992 47.574274 47.192357
46.813132 46.436923 46.063594 45.693419 45.326234 44.962268 44.601332 44.243607
43.888885 43.537301 43.188629 42.842961 42.500056 42.159966 41.822439 41.487486
41.154848 40.824501 40.496182 40.169829 39.845184 39.522151 39.200474 38.880030
38.560570 38.241942 37.923912 37.606300 37.288889
37.666667 38.020419 38.374378 38.728771 39.083781 39.439651 39.796538 40.154698
40.514257 40.875479 41.238460 41.603466 41.970558 42.340003 42.711823 43.086282
43.463361 43.843316 44.226084 44.611910 45.000686 45.392640 45.787618 46.185826
46.587062 46.991511 47.398917 47.809438 48.222769 48.639037 49.057885 49.479408
49.903196 50.329309 50.757289 51.187157 51.618406 52.051023 52.484451 52.918641
53.352995 53.787427 54.221302 54.654500 55.086352 55.516711 55.944883 56.370692
56.793429 57.212899 57.628381 58.039668 58.446040 58.847283 59.242684 59.632032
60.014633 60.390282 60.758313 61.118535 61.470317 61.813488 62.147459 62.472083
62.786818 63.091543 63.385769 63.669402 63.942006 64.203514 64.453544 64.692054
64.918716 65.133510 65.336158 65.526658 65.704779 65.870535 66.023736 66.164405
66.292392 66.407724 66.510285 66.600104 66.677094 66.741280 66.792604 66.831084
66.856686 66.869421 66.869278 66.856256 66.830370 66.791609 66.740009 66.675553
66.598302 66.508231 66.405429 66.289868 66.161668 66.020800 65.867420 65.701503
65.523245 65.332630 65.129896 64.915042 64.688354 64.449849 64.199863 63.938437
63.665959 63.382496 63.088490 62.784035 62.469628 62.145390 61.811869 61.469215
61.118022 60.758463 60.391177 60.016356 59.634674 59.246336 58.852046 58.452017
58.046971 57.637120 57.223197 56.805410 56.384488 55.960628 55.534551 55.106431
54.676975 54.246330 53.815177 53.383635 52.952352 52.521413 52.091428 51.662447
51.235038 50.809213 50.385493 49.963853 49.544766 49.128170 48.714487 48.303618
47.895935 47.491306 47.090050 46.692005 46.297438 45.906158 45.518384 45.133900
44.752872 44.375067 44.000603 43.629228 43.261016 42.895700 42.533311 42.173574
41.816477 41.461740 41.109313 40.758914 40.410455 40.063660 39.718407 39.374425
39.031561 38.689556 38.348229 38.007334 37.666667
38.044444 38.422476 38.800742 39.179454 39.558864 39.939160 40.320608 40.703364
41.087707 41.473760 41.861808 42.251938 42.644438 43.039356 43.436976 43.837305
44.240622 44.646888 45.056371 45.468985 45.884984 46.304232 46.726962 47.152988
47.582520 48.015317 48.451562 48.890960 49.333664 49.779322 50.228053 50.679449
51.133593 51.590021 52.048776 52.509343 52.971722 53.435346 53.900176 54.365597
54.831528 55.297309 55.762823 56.227371 56.690800 57.152380 57.611928 58.068688
58.522453 58.972452 59.418459 59.859698 60.295933 60.726392 61.150835 61.568507
61.979172 62.382099 62.777068 63.163381 63.540835 63.908779 64.267033 64.614994
64.952514 65.279043 65.594464 65.898285 66.190420 66.470436 66.738278 66.993570
67.236285 67.466103 67.683019 67.886767 68.077359 68.254577 68.418448 68.568796