# vtk DataFile Version 3.0
Steady-state temperature (Jacobi)
ASCII
DATASET STRUCTURED_POINTS
DIMENSIONS 181 181 1
ORIGIN 0.0 0.0 0.0
SPACING 0.05 0.05 1.0
POINT_DATA 32761
SCALARS Temperature float 1
LOOKUP_TABLE default
32.000000 32.000000 32.000000 32.000000 32.000000 32.000000 32.000000 32.000000
32.000000 32.000000 32.000000 32.000000 32.000000 32.000000 32.000000 32.000000
32.000000 32.000000 32.000000 32.000000 32.000000 32.000000 32.000000 32.000000
32.000000 32.000000 32.000000 32.000000 32.000000 32.000000 32.000000 32.000000
32.000000 32.000000 32.000000 32.000000 32.000000 32.000000 32.000000 32.000000
32.000000 32.000000 32.000000 32.000000 32.000000 32.000000 32.000000 32.000000
32.000000 32.000000 32.000000 32.000000 32.000000 32.000000 32.000000 32.000000
32.000000 32.000000 32.000000 32.000000 32.000000 32.000000 32.000000 32.000000
32.000000 32.000000 32.000000 32.000000 32.000000 32.000000 32.000000 32.000000
32.000000 32.000000 32.000000 32.000000 32.000000 32.000000 32.000000 32.000000
32.000000 32.000000 32.000000 32.000000 32.000000 32.000000 32.000000 32.000000
32.000000 32.000000 32.000000 32.000000 32.000000 32.000000 32.000000 32.000000
32.000000 32.000000 32.000000 32.000000 32.000000 32.000000 32.000000 32.000000
32.000000 32.000000 32.000000 32.000000 32.000000 32.000000 32.000000 32.000000
32.000000 32.000000 32.000000 32.000000 32.000000 32.000000 32.000000 32.000000
32.000000 32.000000 32.000000 32.000000 32.000000 32.000000 32.000000 32.000000
32.000000 32.000000 32.000000 32.000000 32.000000 32.000000 32.000000 32.000000
32.000000 32.000000 32.000000 32.000000 32.000000 32.000000 32.000000 32.000000
32.000000 32.000000 32.000000 32.000000 32.000000 32.000000 32.000000 32.000000
32.000000 32.000000 32.000000 32.000000 32.000000 32.000000 32.000000 32.000000
32.000000 32.000000 32.000000 32.000000 32.000000 32.000000 32.000000 32.000000
32.000000 32.000000 32.000000 32.000000 32.000000 32.000000 32.000000 32.000000
32.000000 32.000000 32.000000 32.000000 32.000000
32.377778 32.409245 32.440716 32.472193 32.503678 32.535176 32.566688 32.598218
32.629767 32.661338 32.692932 32.724551 32.756196 32.787869 32.819568 32.851295
32.883049 32.914829 32.946632 32.978458 33.010303 33.042165 33.074038 33.105920
33.137802 33.169681 33.201549 33.233399 33.265221 33.297008 33.328749 33.360434
33.392049 33.423585 33.455027 33.486362 33.517573 33.548648 33.579568 33.610318
33.640879 33.671235 33.701364 33.731250 33.760870 33.790207 33.819239 33.847945
33.876303 33.904295 33.931896 33.959087 33.985845 34.012150 34.037981 34.063318
34.088139 34.112425 34.136157 34.159316 34.181884 34.203843 34.225176 34.245868
34.265902 34.285265 34.303942 34.321922 34.339191 34.355739 34.371556 34.386631
34.400957 34.414524 34.427327 34.439358 34.450612 34.461084 34.470768 34.479661
34.487759 34.495060 34.501561 34.507260 34.512154 34.516242 34.519524 34.521998
34.523664 34.524521 34.524569 34.523808 34.522240 34.519863 34.516680 34.512691
34.507897 34.502301 34.495905 34.488710 34.480720 34.471938 34.462367 34.452012
34.440878 34.428970 34.416295 34.402857 34.388667 34.373730 34.358058 34.341658
34.324542 34.306721 34.288207 34.269013 34.249154 34.228643 34.207498 34.185732
34.163364 34.140411 34.116893 34.092826 34.068232 34.043130 34.017542 33.991485
33.964985 33.938059 33.910731 33.883021 33.854952 33.826544 33.797819 33.768797
33.739500 33.709946 33.680158 33.650153 33.619952 33.589570 33.559028 33.528340
33.497525 33.466597 33.435571 33.404460 33.373278 33.342038 33.310751 33.279427
33.248078 33.216711 33.185335 33.153958 33.122587 33.091227 33.059884 33.028562
32.997266 32.965998 32.934762 32.903559 32.872390 32.841257 32.810160 32.779098
32.748072 32.717079 32.686120 32.655190 32.624290 32.593415 32.562565 32.531734
32.500922 32.470123 32.439335 32.408555 32.377778
32.755556 32.818492 32.881434 32.944389 33.007361 33.070358 33.133384 33.196445
33.259545 33.322688 33.385879 33.449120 33.512413 33.575761 33.639164 33.702622
33.766135 33.829698 33.893312 33.956969 34.020667 34.084396 34.148152 34.211921
34.275696 34.339463 34.403210 34.466919 34.530577 34.594162 34.657658 34.721039
34.784287 34.847372 34.910273 34.972957 35.035399 35.097565 35.159425 35.220942
35.282086 35.342814 35.403095 35.462886 35.522150 35.580844 35.638930 35.696362
35.753103 35.809105 35.864331 35.918733 35.972272 36.024903 36.076587 36.127279
36.176943 36.225534 36.273018 36.319353 36.364507 36.408440 36.451124 36.492521
36.532605 36.571343 36.608712 36.644682 36.679232 36.712338 36.743981 36.774140
36.802799 36.829941 36.855553 36.879621 36.902134 36.923080 36.942453 36.960242
36.976443 36.991047 37.004051 37.015449 37.025239 37.033417 37.039981 37.044929
37.048261 37.049975 37.050072 37.048551 37.045413 37.040659 37.034291 37.026312
37.016724 37.005530 36.992735 36.978343 36.962359 36.944792 36.925646 36.904932
36.882659 36.858838 36.833479 36.806599 36.778209 36.748328 36.716973 36.684163
36.649920 36.614266 36.577225 36.538825 36.499091 36.458056 36.415747 36.372200
36.327445 36.281523 36.234465 36.186314 36.137105 36.086882 36.035682 35.983551
35.930526 35.876654 35.821975 35.766535 35.710373 35.653536 35.596063 35.537999
35.479383 35.420257 35.360659 35.300631 35.240206 35.179426 35.118322 35.056931
34.995281 34.933409 34.871339 34.809104 34.746726 34.684233 34.621644 34.558986
34.496274 34.433530 34.370768 34.308005 34.245252 34.182525 34.119831 34.057181
33.994581 33.932041 33.869562 33.807152 33.744809 33.682540 33.620341 33.558215
33.496159 33.434172 33.372250 33.310390 33.248587 33.186837 33.125134 33.063473
33.001846 32.940249 32.878672 32.817110 32.755556
33.133333 33.227740 33.322156 33.416591 33.511053 33.605551 33.700094 33.794689
33.889343 33.984064 34.078855 34.173724 34.268671 34.363702 34.458815 34.554013
34.649291 34.744651 34.840083 34.935586 35.031147 35.126761 35.222411 35.318088
35.413772 35.509448 35.605092 35.700685 35.796199 35.891610 35.986883 36.081992
36.176897 36.271565 36.365953 36.460023 36.553726 36.647022 36.739855 36.832181
36.923942 37.015088 37.105558 37.195298 37.284244 37.372341 37.459522 37.545728
37.630891 37.714952 37.797842 37.879502 37.959862 38.038864 38.116440 38.192532
38.267074 38.340012 38.411283 38.480834 38.548606 38.614550 38.678613 38.740749
38.800909 38.859052 38.915135 38.969121 39.020972 39.070658 39.118144 39.163405
39.206411 39.247143 39.285576 39.321692 39.355473 39.386905 39.415973 39.442666
39.466973 39.488886 39.508396 39.525498 39.540186 39.552456 39.562304 39.569729
39.574727 39.577299 39.577443 39.575161 39.570453 39.563320 39.553767 39.541795
39.527409 39.510613 39.491415 39.469820 39.445838 39.419477 39.390750 39.359667
39.326246 39.290498 39.252446 39.212106 39.169503 39.124660 39.077604 39.028363
38.976972 38.923460 38.867869 38.810233 38.750598 38.689004 38.625503 38.560138
38.492965 38.424033 38.353402 38.281124 38.207263 38.131875 38.055025 37.976772
37.897183 37.816319 37.734248 37.651031 37.566736 37.481424 37.395163 37.308010
37.220035 37.131292 37.041847 36.951752 36.861069 36.769849 36.678149 36.586015
36.493501 36.400649 36.307508 36.214114 36.120513 36.026737 35.932825 35.838804
35.744710 35.650564 35.556397 35.462227 35.368078 35.273964 35.179905 35.085911
34.991998 34.898170 34.804440 34.710810 34.617288 34.523872 34.430566 34.337368
34.244278 34.151290 34.058402 33.965607 33.872899 33.780270 33.687713 33.595218
33.502777 33.410378 33.318011 33.225667 33.133333
33.511111 33.636991 33.762884 33.888802 34.014757 34.140761 34.266825 34.392959
34.519174 34.645476 34.771877 34.898379 35.024990 35.151711 35.278548 35.405495
35.532557 35.659724 35.786995 35.914357 36.041805 36.169321 36.296893 36.424498
36.552121 36.679730 36.807306 36.934812 37.062221 37.189490 37.316585 37.443458
37.570068 37.696359 37.822287 37.947787 38.072809 38.197282 38.321149 38.444335
38.566778 38.688395 38.809120 38.928868 39.047566 39.165124 39.281470 39.396509
39.510166 39.622346 39.732972 39.841950 39.949201 40.054632 40.158168 40.259716
40.359203 40.456542 40.551660 40.644477 40.734924 40.822926 40.908420 40.991337
41.071619 41.149204 41.224042 41.296077 41.365265 41.431558 41.494918 41.555303
41.612683 41.667023 41.718297 41.766477 41.811543 41.853471 41.892247 41.927852
41.960275 41.989503 42.015527 42.038337 42.057927 42.074292 42.087427 42.097329
42.103995 42.107425 42.107617 42.104573 42.098293 42.088780 42.076037 42.060069
42.040880 42.018479 41.992870 41.964066 41.932075 41.896913 41.858590 41.817127
41.772540 41.724852 41.674084 41.620267 41.563425 41.503595 41.440809 41.375109
41.306533 41.235132 41.160948 41.084039 41.004456 40.922263 40.837516 40.750287
40.660638 40.568647 40.474380 40.377922 40.279344 40.178734 40.076166 39.971732
39.865510 39.757593 39.648060 39.537004 39.424505 39.310657 39.195538 39.079239
38.961835 38.843418 38.724058 38.603842 38.482837 38.361126 38.238770 38.115845
37.992410 37.868533 37.744268 37.619676 37.494804 37.369708 37.244428 37.119013
36.993496 36.867922 36.742315 36.616713 36.491136 36.365616 36.240165 36.114810
35.989559 35.864431 35.739430 35.614569 35.489850 35.365279 35.240853 35.116576
34.992441 34.868447 34.744585 34.620851 34.497232 34.373721 34.250306 34.126975
34.003715 33.880513 33.757354 33.634225 33.511111
33.888889 34.046247 34.203620 34.361025 34.518477 34.675992 34.833582 34.991262
35.149043 35.306938 35.464954 35.623103 35.781387 35.939815 36.098385 36.257103
36.415960 36.574959 36.734086 36.893337 37.052692 37.212143 37.371662 37.531234
37.690825 37.850413 38.009956 38.169424 38.328767 38.487950 38.646912 38.805610
38.963977 39.121959 39.279482 39.436486 39.592887 39.748616 39.903584 40.057714
40.210908 40.363085 40.514140 40.663986 40.812512 40.959627 41.105217 41.249185
41.391416 41.531811 41.670253 41.806643 41.940864 42.072818 42.202391 42.329485
42.453990 42.575814 42.694850 42.811011 42.924199 43.034331 43.141315 43.245078
43.345536 43.442622 43.536261 43.626396 43.712961 43.795905 43.875171 43.950719
44.022499 44.090478 44.154615 44.214883 44.271250 44.323695 44.372191 44.416724
44.457272 44.493826 44.526369 44.554895 44.579393 44.599857 44.616282 44.628664
44.636999 44.641287 44.641527 44.637719 44.629866 44.617970 44.602035 44.582065
44.558069 44.530052 44.498027 44.462002 44.421993 44.378013 44.330083 44.278219
44.222449 44.162795 44.099291 44.031964 43.960856 43.886002 43.807452 43.725248
43.639448 43.550104 43.457282 43.361041 43.261457 43.158597 43.052547 42.943380
42.831191 42.716061 42.598090 42.477366 42.353997 42.228075 42.099712 41.969005
41.836070 41.701005 41.563929 41.424939 41.284156 41.141677 40.997619 40.852079
40.705171 40.556987 40.407639 40.257214 40.105817 39.953530 39.800451 39.646658
39.492240 39.337266 39.181820 39.025962 38.869769 38.713291 38.556598 38.399733
38.242755 38.085700 37.928620 37.771542 37.614508 37.457542 37.300676 37.143925
36.987317 36.830859 36.674571 36.518456 36.362526 36.206780 36.051224 35.895852
35.740665 35.585652 35.430811 35.276127 35.121593 34.967193 34.812916 34.658744
34.504663 34.350654 34.196702 34.042786 33.888889
34.266667 34.455506 34.644365 34.833262 35.022218 35.211248 35.400372 35.589604
35.778962 35.968456 36.158102 36.347906 36.537881 36.728027 36.918354 37.108856
37.299538 37.490387 37.681402 37.872564 38.063866 38.255280 38.446791 38.638364
38.829976 39.021581 39.213149 39.404626 39.595971 39.787120 39.978023 40.168606
40.358810 40.548550 40.737757 40.926338 41.114213 41.301279 41.487448 41.672607
41.856662 42.039489 42.220986 42.401025 42.579497 42.756266 42.931219 43.104216
43.275141 43.443853 43.610231 43.774134 43.935443 44.094018 44.249741 44.402476
44.552109 44.698508 44.841565 44.981156 45.117179 45.249518 45.378080 45.502759
45.623471 45.740119 45.852629 45.960917 46.064918 46.164558 46.259783 46.350530
46.436753 46.518400 46.595435 46.667815 46.735511 46.798489 46.856728 46.910201
46.958891 47.002779 47.041855 47.076102 47.105515 47.130083 47.149802 47.164665
47.174672 47.179819 47.180106 47.175534 47.166105 47.151822 47.132690 47.108714
47.079902 47.046264 47.007810 46.964554 46.916510 46.863699 46.806139 46.743857
46.676876 46.605232 46.528955 46.448088 46.362671 46.272756 46.178390 46.079637
45.976553 45.869213 45.757682 45.642048 45.522384 45.398789 45.271346 45.140165
45.005339 44.866986 44.725206 44.580127 44.431856 44.280528 44.126256 43.969178
43.809411 43.647098 43.482358 43.315334 43.146146 42.974935 42.801820 42.626941
42.450411 42.272367 42.092917 41.912192 41.730294 41.547347 41.363444 41.178702
40.993205 40.807061 40.620346 40.433156 40.245560 40.057642 39.869462 39.681094
39.492588 39.304008 39.115394 38.926801 38.738259 38.549814 38.361486 38.173313
37.985308 37.797498 37.609890 37.422502 37.235335 37.048400 36.861692 36.675214
36.488957 36.302918 36.117083 35.931444 35.745985 35.560692 35.375545 35.190530
35.005622 34.820805 34.636054 34.451349 34.266667
34.644444 34.864771 35.085120 35.305516 35.525979 35.746533 35.967196 36.187992
36.408933 36.630042 36.851327 37.072805 37.294483 37.516372 37.738470 37.960786
38.183311 38.406046 38.628975 38.852091 39.075370 39.298797 39.522337 39.745968
39.969644 40.193334 40.416979 40.640539 40.863944 41.087143 41.310054 41.532615
41.754732 41.976331 42.197307 42.417574 42.637017 42.855537 43.073008 43.289323
43.504343 43.717953 43.930006 44.140376 44.348910 44.555475 44.759912 44.962083
45.161824 45.358996 45.553433 45.744993 45.933510 46.118846 46.300838 46.479348
46.654220 46.825323 46.992506 47.155646 47.314602 47.469259 47.619487 47.765183
47.906226 48.042526 48.173975 48.300494 48.421990 48.538393 48.649625 48.755626
48.856332 48.951694 49.041658 49.126186 49.205235 49.278776 49.346775 49.409209
49.466054 49.517294 49.562909 49.602890 49.637223 49.665902 49.688918 49.706267
49.717946 49.723953 49.724287 49.718949 49.707942 49.691268 49.668934 49.640945
49.607311 49.568039 49.523146 49.472643 49.416551 49.354887 49.287678 49.214947
49.136731 49.053060 48.963978 48.869526 48.769759 48.664726 48.554496 48.439126
48.318699 48.193285 48.062978 47.927859 47.788037 47.643605 47.494683 47.341376
47.183816 47.022118 46.856425 46.686861 46.513579 46.336708 46.156409 45.972819
45.786101 45.596396 45.403871 45.208667 45.010951 44.810864 44.608572 44.404211
44.197943 43.989899 43.780237 43.569079 43.356574 43.142840 42.928014 42.712203
42.495537 42.278111 42.060044 41.841420 41.622345 41.402894 41.183160 40.963205
40.743112 40.522932 40.302734 40.082559 39.862465 39.642483 39.422658 39.203012
38.983581 38.764376 38.545424 38.326728 38.108305 37.890152 37.672277 37.454670
37.237332 37.020247 36.803412 36.586804 36.370414 36.154217 35.938198 35.722331
35.506595 35.290963 35.075413 34.859915 34.644444
35.022222 35.274041 35.525886 35.777785 36.029764 36.281847 36.534062 36.786426
37.038967 37.291697 37.544641 37.797806 38.051210 38.304856 38.558757 38.812908
39.067313 39.321960 39.576846 39.831949 40.087257 40.342736 40.598368 40.854104
41.109916 41.365744 41.621548 41.877256 42.132814 42.388137 42.643159 42.897781
43.151925 43.405476 43.658344 43.910402 44.161545 44.411633 44.660548 44.908139
45.154278 45.398799 45.641565 45.882402 46.121162 46.357663 46.591751 46.823239
47.051967 47.277743 47.500407 47.719767 47.935660 48.147896 48.356318 48.560739
48.761005 48.956940 49.148395 49.335203 49.517227 49.694311 49.866329 50.033137
50.194624 50.350661 50.501147 50.645971 50.785045 50.918273 51.045583 51.166890
51.282137 51.391254 51.494195 51.590903 51.681342 51.765469 51.843256 51.914670
51.979690 52.038292 52.090463 52.136185 52.175449 52.208243 52.234562 52.254400
52.267754 52.274621 52.275002 52.268897 52.256308 52.237240 52.211697 52.179689
52.141221 52.096308 52.044960 51.987198 51.923035 51.852500 51.775612 51.692410
51.602920 51.507189 51.405255 51.297176 51.183000 51.062798 50.936630 50.804582
50.666727 50.523165 50.373982 50.219294 50.059202 49.893836 49.723310 49.547768
49.367338 49.182178 48.992424 48.798248 48.599797 48.397250 48.190762 47.980520
47.766683 47.549444 47.328964 47.105436 46.879023 46.649918 46.418280 46.184298
45.948126 45.709949 45.469913 45.228195 44.984932 44.740289 44.494396 44.247406
43.999436 43.750626 43.501082 43.250931 43.000264 42.749196 42.497804 42.246190
41.994417 41.742573 41.490709 41.238898 40.987180 40.735615 40.484230 40.233074
39.982163 39.731533 39.481192 39.231163 38.981447 38.732057 38.482984 38.234234
37.985791 37.737652 37.489796 37.242213 36.994878 36.747774 36.500872 36.254151
36.007579 35.761132 35.514776 35.268484 35.022222
35.400000 35.683316 35.966663 36.250072 36.533572 36.817195 37.100966 37.384914
37.669060 37.953432 38.238044 38.522920 38.808065 39.093500 39.379223 39.665245
39.951557 40.238161 40.525038 40.812181 41.099559 41.387156 41.674926 41.962844
42.250850 42.538905 42.826935 43.114889 43.402679 43.690237 43.977460 44.264266
44.550538 44.836177 45.121050 45.405046 45.688013 45.969826 46.250321 46.529358
46.806757 47.082369 47.356000 47.627489 47.896633 48.163262 48.427165 48.688163
48.946043 49.200620 49.451677 49.699030 49.942461 50.181788 50.416799 50.647313
50.873125 51.094064 51.309933 51.520572 51.725795 51.925454 52.119380 52.307437
52.489472 52.665364 52.834979 52.998210 53.154941 53.305082 53.448533 53.585220
53.715059 53.837991 53.953948 54.062884 54.164744 54.259494 54.347091 54.427511
54.500722 54.566707 54.625444 54.676920 54.721120 54.758038 54.787664 54.809995
54.825025 54.832754 54.833181 54.826306 54.812133 54.790666 54.761910 54.725873
54.682565 54.631995 54.574182 54.509139 54.436890 54.357454 54.270867 54.177153
54.076359 53.968520 53.853693 53.731926 53.603289 53.467843 53.325675 53.176859
53.021499 52.859683 52.691535 52.517157 52.336690 52.150254 51.958005 51.760080
51.556648 51.347862 51.133907 50.914945 50.691174 50.462767 50.229932 49.992848
49.751729 49.506760 49.258160 49.006112 48.750837 48.492518 48.231371 47.967576
47.701344 47.432847 47.162288 46.889829 46.615664 46.339945 46.062851 45.784521
45.505124 45.224782 44.943649 44.661834 44.379475 44.096666 43.813529 43.530143
43.246613 42.963005 42.679408 42.395873 42.112474 41.829250 41.546258 41.263525
40.981096 40.698985 40.417224 40.135817 39.854784 39.574118 39.293831 39.013907
38.734346 38.455129 38.176245 37.897668 37.619383 37.341358 37.063570 36.785985
36.508576 36.231307 35.954145 35.677054 35.400000
35.777778 36.092596 36.407450 36.722375 37.037405 37.352572 37.667912 37.983450
38.299221 38.615243 38.931547 39.248145 39.565063 39.882304 40.199886 40.517804
40.836068 41.154661 41.473584 41.792808 42.112323 42.432086 42.752074 43.072232
43.392522 43.712873 44.033235 44.353517 44.673655 44.993543 45.313098 45.632197
45.950742 46.268590 46.585627 46.901694 47.216658 47.530343 47.842602 48.153242
48.462099 48.768968 49.073670 49.375987 49.675730 49.972669 50.266606 50.557302
50.844555 51.128120 51.407792 51.683325 51.954513 52.221115 52.482925 52.739709
52.991269 53.237380 53.477853 53.712477 53.941076 54.163452 54.379446 54.588877
54.791603 54.987462 55.176329 55.358063 55.532558 55.699690 55.859373 56.011503
56.156008 56.292806 56.421838 56.543039 56.656366 56.761766 56.859209 56.948655
57.030082 57.103463 57.168782 57.226021 57.275170 57.316216 57.349156 57.373981
57.390691 57.399281 57.399753 57.392108 57.376347 57.352477 57.320501 57.280429
57.232267 57.176033 57.111735 57.039397 56.959035 56.870679 56.774355 56.670103
56.557957 56.437971 56.310191 56.174685 56.031512 55.880759 55.722498 55.556835
55.383861 55.203698 55.016457 54.822280 54.621293 54.413662 54.199528 53.979077
53.752468 53.519901 53.281552 53.037637 52.788344 52.533901 52.274506 52.010397
51.741778 51.468893 51.191950 50.911195 50.626835 50.339116 50.048241 49.754451
49.457944 49.158951 48.857661 48.554296 48.249032 47.942079 47.633598 47.323785
47.012786 46.700780 46.387897 46.074300 45.760102 45.445446 45.130430 44.815178
44.499773 44.184320 43.868885 43.553558 43.238387 42.923445 42.608767 42.294411
41.980396 41.666766 41.353529 41.040713 40.728316 40.416353 40.104813 39.793699
39.482992 39.172685 38.862750 38.553173 38.243921 37.934971 37.626285 37.317836
37.009582 36.701490 36.393517 36.085627 35.777778
36.155556 36.501882 36.848247 37.194694 37.541258 37.887981 38.234895 38.582039
38.929440 39.277134 39.625141 39.973491 40.322196 40.671279 41.020743 41.370603
41.720849 42.071487 42.422494 42.773866 43.125565 43.477574 43.829839 44.182330
44.534976 44.887731 45.240507 45.593240 45.945825 46.298180 46.650180 47.001725
47.352669 47.702896 48.052239 48.400561 48.747678 49.093435 49.437627 49.780083
50.120580 50.458931 50.794898 51.128278 51.458821 51.786312 52.110490 52.431132
52.747969 53.060772 53.369270 53.673231 53.972384 54.266500 54.555313 54.838598
55.116100 55.387602 55.652861 55.911676 56.163816 56.409097 56.647309 56.878284
57.101833 57.317808 57.526042 57.726408 57.918761 58.102994 58.278986 58.446649
58.605882 58.756617 58.898773 59.032296 59.157124 59.273218 59.380530 59.479034
59.568693 59.649492 59.721404 59.784420 59.838523 59.883708 59.919964 59.947289
59.965678 59.975131 59.975648 59.967229 59.949879 59.923600 59.888399 59.844281
59.791260 59.729343 59.658550 59.578894 59.490402 59.393093 59.287007 59.172172
59.048639 58.916448 58.775666 58.626348 58.468577 58.302424 58.127993 57.945373
57.754689 57.556049 57.349601 57.135473 56.913835 56.684837 56.448671 56.205504
55.955551 55.698997 55.436074 55.166985 54.891977 54.611264 54.325108 54.033732
53.737404 53.436356 53.130859 52.821147 52.507492 52.190124 51.869314 51.545286
51.218302 50.888577 50.556365 50.221867 49.885323 49.546922 49.206886 48.865388
48.522633 48.178777 47.834005 47.488454 47.142291 46.795633 46.448628 46.101373
45.753995 45.406575 45.059219 44.711990 44.364977 44.018225 43.671803 43.325743
42.980096 42.634879 42.290129 41.945849 41.602060 41.258755 40.915942 40.573602
40.231734 39.890309 39.549315 39.208717 38.868493 38.528604 38.189019 37.849695
37.510596 37.171676 36.832893 36.494201 36.155556
36.533333 36.911170 37.289053 37.667025 38.045132 38.423413 38.801914 39.180669
39.559721 39.939095 40.318831 40.698946 41.079472 41.460418 41.841807 42.223635
42.605917 42.988636 43.371794 43.755359 44.139322 44.523634 44.908270 45.293164
45.678275 46.063518 46.448834 46.834118 47.219291 47.604229 47.988833 48.372955
48.756477 49.139230 49.521073 49.901816 50.281298 50.659306 51.035660 51.410126
51.782506 52.152548 52.520034 52.884697 53.246305 53.604577 53.959269 54.310089
54.656787 54.999063 55.336662 55.669285 55.996675 56.318536 56.634615 56.944623
57.248317 57.545420 57.835701 58.118900 58.394800 58.663162 58.923789 59.176464
59.421011 59.657238 59.884991 60.104103 60.314445 60.515873 60.708283 60.891554
61.065603 61.230334 61.385681 61.531569 61.667951 61.794769 61.911989 62.019570
62.117490 62.205719 62.284243 62.353043 62.412112 62.461437 62.501016 62.530842
62.550914 62.561230 62.561790 62.552598 62.533653 62.504962 62.466529 62.418362
62.360467 62.292860 62.215551 62.128563 62.031911 61.925629 61.809740 61.684291
61.549316 61.404877 61.251024 61.087834 60.915376 60.733749 60.543037 60.343366
60.134840 59.917608 59.691798 59.457584 59.215118 58.964598 58.706199 58.440142
58.166625 57.885891 57.598157 57.303685 57.002709 56.695507 56.382324 56.063451
55.739142 55.409696 55.075370 54.736465 54.393238 54.045989 53.694971 53.340477
52.982750 52.622076 52.258684 51.892847 51.524779 51.154736 50.782916 50.409554
50.034830 49.658960 49.282103 48.904452 48.526146 48.147356 47.768200 47.388827
47.009334 46.629848 46.250446 45.871233 45.492268 45.113636 44.735376 44.357556
43.980197 43.603349 43.227020 42.851240 42.476006 42.101332 41.727203 41.353620
40.980557 40.608004 40.235925 39.864300 39.493087 39.122257 38.751761 38.381562
38.011611 37.641864 37.272268 36.902775 36.533333
36.911111 37.320462 37.729864 38.139367 38.549018 38.958868 39.368960 39.779342
40.190049 40.601127 41.012601 41.424512 41.836876 42.249725 42.663062 43.076911
43.491261 43.906125 44.321476 44.737314 45.153595 45.570303 45.987378 46.404785
46.822444 47.240301 47.658256 48.076235 48.494114 48.911798 49.329140 49.746022
50.162274 50.577756 50.992271 51.405656 51.817692 52.228193 52.636915 53.043650
53.448135 53.850140 54.249382 54.645614 55.038535 55.427884 55.813345 56.194647
56.571465 56.943519 57.310481 57.672069 58.027953 58.377854 58.721449 59.058464
59.388589 59.711562 60.027088 60.334920 60.634785 60.926455 61.209681 61.484260
61.749966 62.006623 62.254032 62.492044 62.720488 62.939240 63.148158 63.347142
63.536077 63.714886 63.883477 64.041794 64.189767 64.327356 64.454509 64.571201
64.677396 64.773077 64.858222 64.932821 64.996859 65.050334 65.093237 65.125568
65.147322 65.158501 65.159105 65.149136 65.128596 65.097488 65.055819 65.003591
64.940819 64.867506 64.783672 64.689327 64.584500 64.469208 64.343491 64.207378
64.060925 63.904172 63.737193 63.560048 63.372832 63.175623 62.968540 62.751686
62.525206 62.289226 62.043919 61.789438 61.525984 61.253735 60.972921 60.683744
60.386459 60.081293 59.768525 59.448401 59.121218 58.787241 58.446782 58.100117
57.747570 57.389423 57.026006 56.657602 56.284544 55.907111 55.525629 55.140372
54.751657 54.359745 53.964940 53.567487 53.167675 52.765731 52.361921 51.956453
51.549573 51.141466 50.732353 50.322398 49.911798 49.500691 49.089252 48.677596
48.265873 47.854175 47.442628 47.031304 46.620305 46.209683 45.799519 45.389845
44.980721 44.572163 44.164213 43.756871 43.350160 42.944067 42.538600 42.133733
41.729462 41.325750 40.922579 40.519906 40.117700 39.715914 39.314507 38.913426
38.512625 38.112047 37.711640 37.311347 36.911111
37.288889 37.729755 38.170678 38.611712 39.052914 39.494334 39.936028 40.378039
40.820421 41.263209 41.706450 42.150169 42.594407 43.039178 43.484512 43.930409
44.376889 44.823936 45.271556 45.719716 46.168407 46.617576 47.067198 47.517198
47.967530 48.418100 48.868839 49.319628 49.770378 50.220944 50.671211 51.121010
51.570201 52.018587 52.466004 52.912228 53.357069 53.800278 54.241639 54.680879
55.117758 55.551979 55.983282 56.411349 56.835901 57.256603 57.673163 58.085230
58.492502 58.894621 59.291280 59.682117 60.066825 60.445045 60.816475 61.180767
61.537627 61.886724 62.227779 62.560480 62.884570 63.199762 63.505823 63.802492
64.089566 64.366814 64.634059 64.891105 65.137803 65.373987 65.599538 65.814320
66.018240 66.211191 66.393103 66.563893 66.723513 66.871903 67.009030 67.134851
67.249348 67.352492 67.444274 67.524676 67.593694 67.651320 67.697552 67.732387
67.755825 67.767867 67.768513 67.757766 67.735627 67.702101 67.657189 67.600900
67.533236 67.454212 67.363833 67.262121 67.149089 67.024768 66.889181 66.742375
66.584382 66.415270 66.235088 66.043923 65.841847 65.628971 65.405391 65.171246
64.926657 64.671795 64.406809 64.131900 63.847247 63.553083 63.249615 62.937106
62.615791 62.285959 61.947871 61.601840 61.248146 60.887125 60.519071 60.144334
59.763219 59.376085 58.983243 58.585055 58.181831 57.773929 57.361655 56.945360
56.525335 56.101921 55.675395 55.246078 54.814230 54.380151 53.944078 53.506291
53.067001 52.626462 52.184862 51.742429 51.299323 50.855747 50.411836 49.967764
49.523643 49.079619 48.635781 48.192250 47.749090 47.306400 46.864222 46.422631
45.981650 45.541334 45.101688 44.662745 44.224497 43.786958 43.350106 42.913939
42.478423 42.043542 41.609253 41.175527 40.742312 40.309570 39.877242 39.445282
39.013627 38.582223 38.151006 37.719916 37.288889
37.666667 38.139047 38.611490 39.084057 39.556808 40.029806 40.503102 40.976757
41.450817 41.925336 42.400351 42.875911 43.352038 43.828774 44.306128 44.784129
45.262773 45.742073 46.222008 46.702578 47.183739 47.665474 48.147718 48.630435
49.113535 49.596961 50.080598 50.564364 51.048119 51.531755 52.015104 52.498030
52.980338 53.461865 53.942385 54.421708 54.899578 55.375778 55.850023 56.322071
56.791609 57.258370 57.722016 58.182258 58.638739 59.091147 59.539111 59.982305
60.420344 60.852894 61.279563 61.700013 62.113854 62.520749 62.920315 63.312224
63.696106 64.071648 64.438499 64.796368 65.144928 65.483912 65.813024 66.132026
66.440655 66.738704 67.025944 67.302202 67.567283 67.821046 68.063332 68.294029
68.513011 68.720194 68.915481 69.098813 69.270117 69.429356 69.576478 69.711461
69.834271 69.944899 70.043322 70.129538 70.203537 70.265318 70.314878 70.352219
70.377340 70.390244 70.390932 70.379406 70.355668 70.319719 70.271565 70.211205
70.138649 70.053899 69.956970 69.847868 69.726619 69.593235 69.447755 69.290203
69.120636 68.939093 68.745653 68.540375 68.323362 68.094700 67.854519 67.602934
67.340107 67.066183 66.781358 66.485810 66.179771 65.863449 65.537111 65.200997
64.855407 64.500610 64.136934 63.764674 63.384183 62.995776 62.599825 62.196660
61.786667 61.370184 60.947603 60.519265 60.085562 59.646831 59.203458 58.755769
58.304141 57.848883 57.390355 56.928848 56.464701 55.998181 55.529603 55.059211
54.587290 54.114057 53.639771 53.164621 52.688835 52.212574 51.736038 51.259359
50.782708 50.306191 49.829950 49.354066 48.878653 48.403769 47.929503 47.455889
46.982994 46.510832 46.039445 45.568832 45.099014 44.629973 44.161714 43.694203
43.227431 42.761350 42.295938 41.831138 41.366914 40.903204 40.439960 39.977115
39.514612 39.052382 38.590361 38.128479 37.666667
38.044444 38.548336 39.052296 39.556393 40.060696 40.565266 41.070173 41.575471
42.081225 42.587480 43.094295 43.601704 44.109758 44.618477 45.127902 45.638036
46.148907 46.660503 47.172834 47.685867 48.199598 48.713969 49.228956 49.744479
50.260488 50.776879 51.293579 51.810453 52.327401 52.844262 53.360905 53.877138
54.392803 54.907674 55.421563 55.934212 56.445403 56.954847 57.462294 57.967425
58.469962 58.969558 59.465908 59.958639 60.447424 60.931868 61.411626 61.886285
62.355486 62.818809 63.275885 63.726290 64.169655 64.605559 65.033640 65.453487
65.864752 66.267042 66.660027 67.043341 67.416679 67.779705 68.132146 68.473700
68.804126 69.123163 69.430604 69.726227 70.009864 70.281327 70.540486 70.787191
71.021342 71.242825 71.451567 71.647484 71.830530 72.000644 72.157799 72.301957