<?xml version="1.0"?>
<VTKFile type="ImageData" version="0.1" byte_order="LittleEndian">
  <ImageData WholeExtent="0 180 0 180 0 0" Origin="0.0 0.0 0.0" Spacing="0.05 0.05 1">
    <Piece Extent="0 180 0 180 0 0">
      <PointData Scalars="Temperature">
        <DataArray type="Float32" Name="Temperature" format="ascii">
32.000000 32.000000 32.000000 32.000000 32.000000 32.000000 32.000000 32.000000 32.000000 32.000000 32.000000 32.000000 32.000000 32.000000 32.000000 32.000000 32.000000 32.000000 32.000000 32.000000 32.000000 32.000000 32.000000 32.000000 32.000000 32.000000 32.000000 32.000000 32.000000 32.000000 32.000000 32.000000 32.000000 32.000000 32.000000 32.000000 32.000000 32.000000 32.000000 32.000000 32.000000 32.000000 32.000000 32.000000 32.000000 32.000000 32.000000 32.000000 32.000000 32.000000 32.000000 32.000000 32.000000 32.000000 32.000000 32.000000 32.000000 32.000000 32.000000 32.000000 32.000000 32.000000 32.000000 32.000000 32.000000 32.000000 32.000000 32.000000 32.000000 32.000000 32.000000 32.000000 32.000000 32.000000 32.000000 32.000000 32.000000 32.000000 32.000000 32.000000 32.000000 32.000000 32.000000 32.000000 32.000000 32.000000 32.000000 32.000000 32.000000 32.000000 32.000000 32.000000 32.000000 32.000000 32.000000 32.000000 32.000000 32.000000 32.000000 32.000000 32.000000 32.000000 32.000000 32.000000 32.000000 32.000000 32.000000 32.000000 32.000000 32.000000 32.000000 32.000000 32.000000 32.000000 32.000000 32.000000 32.000000 32.000000 32.000000 32.000000 32.000000 32.000000 32.000000 32.000000 32.000000 32.000000 32.000000 32.000000 32.000000 32.000000 32.000000 32.000000 32.000000 32.000000 32.000000 32.000000 32.000000 32.000000 32.000000 32.000000 32.000000 32.000000 32.000000 32.000000 32.000000 32.000000 32.000000 32.000000 32.000000 32.000000 32.000000 32.000000 32.000000 32.000000 32.000000 32.000000 32.000000 32.000000 32.000000 32.000000 32.000000 32.000000 32.000000 32.000000 32.000000 32.000000 32.000000 32.000000 32.000000 32.000000 32.000000 32.000000 32.000000 32.000000 32.000000 32.000000 32.000000 32.000000 32.000000 32.000000 32.000000
32.377778 32.405281 32.432793 32.460320 32.487871 32.515453 32.543073 32.570739 32.598457 32.626236 32.654079 32.681994 32.709984 32.738058 32.766215 32.794464 32.822804 32.851241 32.879771 32.908403 32.937129 32.965956 32.994875 33.023891 33.052994 33.082186 33.111456 33.140803 33.170214 33.199689 33.229209 33.258773 33.288362 33.317971 33.347578 33.377179 33.406748 33.436279 33.465745 33.495137 33.524428 33.553605 33.582640 33.611521 33.640216 33.668712 33.696977 33.724997 33.752738 33.780186 33.807307 33.834086 33.860489 33.886502 33.912091 33.937241 33.961920 33.986113 34.009789 34.032934 34.055520 34.077532 34.098943 34.119742 34.139903 34.159415 34.178255 34.196414 34.213870 34.230617 34.246635 34.261918 34.276449 34.290224 34.303228 34.315457 34.326900 34.337553 34.347407 34.356460 34.364702 34.372134 34.378749 34.384545 34.389518 34.393668 34.396992 34.399488 34.401156 34.401995 34.402005 34.401186 34.399537 34.397061 34.393758 34.389630 34.384679 34.378906 34.372317 34.364912 34.356697 34.347675 34.337854 34.327235 34.315829 34.303639 34.290678 34.276949 34.262466 34.247236 34.231274 34.214588 34.197195 34.179105 34.160338 34.140904 34.120827 34.100117 34.078799 34.056887 34.034408 34.011375 33.987817 33.963750 33.939204 33.914195 33.888754 33.862897 33.836657 33.810051 33.783111 33.755853 33.728312 33.700501 33.672455 33.644187 33.615732 33.587101 33.558326 33.529420 33.500413 33.471316 33.442157 33.412944 33.383706 33.354449 33.325198 33.295959 33.266753 33.237584 33.208474 33.179422 33.150448 33.121552 33.092748 33.064035 33.035426 33.006918 32.978521 32.950231 32.922056 32.893991 32.866040 32.838198 32.810468 32.782841 32.755321 32.727898 32.700573 32.673335 32.646184 32.619110 32.592108 32.565171 32.538292 32.511461 32.484674 32.457920 32.431192 32.404480 32.377778
32.755556 32.810568 32.865597 32.920656 32.975764 33.030932 33.086180 33.141517 33.196962 33.252522 33.308217 33.364052 33.420043 33.476194 33.532522 33.589024 33.645716 33.702594 33.759671 33.816939 33.874409 33.932068 33.989925 34.047963 34.106189 34.164581 34.223142 34.281845 34.340691 34.399649 34.458715 34.517854 34.577059 34.636288 34.695532 34.754746 34.813915 34.872990 34.931955 34.990753 35.049367 35.107738 35.165842 35.223620 35.281045 35.338054 35.394619 35.450676 35.506193 35.561106 35.615383 35.668958 35.721799 35.773841 35.825052 35.875368 35.924758 35.973159 36.020541 36.066846 36.112045 36.156082 36.198931 36.240540 36.280886 36.319919 36.357621 36.393947 36.428879 36.462379 36.494432 36.525003 36.554080 36.581633 36.607654 36.632116 36.655011 36.676320 36.696036 36.714142 36.730634 36.745498 36.758732 36.770325 36.780276 36.788576 36.795226 36.800219 36.803556 36.805234 36.805253 36.803614 36.800317 36.795364 36.788756 36.780499 36.770594 36.759048 36.745864 36.731053 36.714617 36.696572 36.676920 36.655681 36.632859 36.608477 36.582541 36.555079 36.526100 36.495634 36.463693 36.430314 36.395510 36.359321 36.321766 36.282889 36.242709 36.201278 36.158617 36.114780 36.069793 36.023713 35.976568 35.928419 35.879295 35.829260 35.778344 35.726614 35.674100 35.620871 35.566956 35.512423 35.457305 35.401666 35.345539 35.288987 35.232041 35.174763 35.117179 35.059352 35.001305 34.943096 34.884745 34.826307 34.767800 34.709274 34.650742 34.592252 34.533812 34.475466 34.417218 34.359108 34.301135 34.243334 34.185704 34.128271 34.071033 34.014011 33.957198 33.900614 33.844246 33.788111 33.732194 33.676506 33.621031 33.565775 33.510722 33.455873 33.401211 33.346733 33.292421 33.238269 33.184257 33.130379 33.076613 33.022949 32.969367 32.915855 32.862393 32.808966 32.755556
33.133333 33.215866 33.298421 33.381025 33.463699 33.546468 33.629351 33.712374 33.795553 33.878915 33.962469 34.046244 34.130244 34.214496 34.299000 34.383781 34.468835 34.554184 34.639816 34.725752 34.811976 34.898503 34.985309 35.072409 35.159771 35.247405 35.335272 35.423377 35.511676 35.600167 35.688798 35.777565 35.866407 35.955313 36.044218 36.133105 36.221900 36.310582 36.399073 36.487344 36.575311 36.662942 36.750148 36.836892 36.923080 37.008672 37.093572 37.177735 37.261064 37.343512 37.424980 37.505420 37.584733 37.662872 37.739738 37.815285 37.889417 37.962088 38.033206 38.102729 38.170568 38.236684 38.300995 38.363464 38.424015 38.482616 38.539197 38.593730 38.646154 38.696442 38.744542 38.790432 38.834064 38.875423 38.914467 38.951183 38.985537 39.017519 39.047101 39.074275 39.099019 39.121327 39.141182 39.158580 39.173508 39.185965 39.195940 39.203434 39.208440 39.210958 39.210987 39.208527 39.203581 39.196148 39.186235 39.173843 39.158983 39.141655 39.121876 39.099647 39.074989 39.047905 39.018420 38.986541 38.952299 38.915701 38.876785 38.835563 38.792078 38.746345 38.698414 38.648305 38.596075 38.541747 38.485386 38.427019 38.366718 38.304514 38.240486 38.174670 38.107149 38.037963 37.967201 37.894907 37.821175 37.746049 37.669626 37.591955 37.513134 37.433210 37.352287 37.270409 37.187679 37.104142 37.019899 36.934993 36.849523 36.763528 36.677104 36.590288 36.503171 36.415784 36.328214 36.240488 36.152686 36.064830 35.976995 35.889197 35.801503 35.713924 35.626521 35.539300 35.452313 35.365561 35.279090 35.192895 35.107014 35.021438 34.936200 34.851284 34.766715 34.682476 34.598585 34.515021 34.431795 34.348883 34.266291 34.183992 34.101987 34.020247 33.938767 33.857519 33.776492 33.695655 33.614996 33.534484 33.454101 33.373819 33.293614 33.213461 33.133333
33.511111 33.621179 33.731279 33.841441 33.951700 34.062082 34.172623 34.283344 34.394283 34.505456 34.616899 34.728624 34.840666 34.953029 35.065748 35.178821 35.292277 35.406109 35.520343 35.634962 35.749990 35.865400 35.981213 36.097392 36.213952 36.330848 36.448089 36.565620 36.683443 36.801494 36.919768 37.038193 37.156755 37.275372 37.394025 37.512622 37.631136 37.749466 37.867579 37.985366 38.102786 38.219725 38.336134 38.451893 38.566949 38.681175 38.794515 38.906838 39.018083 39.128119 39.236882 39.344239 39.450127 39.554413 39.657034 39.757860 39.856830 39.953817 40.048761 40.141544 40.232109 40.320342 40.406193 40.489556 40.570384 40.648581 40.724107 40.796872 40.866843 40.933941 40.998137 41.059362 41.117593 41.172769 41.224873 41.273852 41.319695 41.362357 41.401828 41.438075 41.471089 41.500844 41.527334 41.550539 41.570456 41.587069 41.600378 41.610371 41.617050 41.620408 41.620447 41.617166 41.610567 41.600654 41.587429 41.570902 41.551076 41.527966 41.501576 41.471927 41.439026 41.402900 41.363557 41.321034 41.275339 41.226518 41.174585 41.119591 41.061556 41.000541 40.936569 40.869712 40.799998 40.727507 40.652274 40.574390 40.493894 40.410886 40.325411 40.237577 40.147437 40.055103 39.960634 39.864151 39.765713 39.665448 39.563418 39.459755 39.354523 39.247856 39.139817 39.030543 38.920095 38.808608 38.696143 38.582833 38.468733 38.353974 38.238607 38.122756 38.006468 37.889860 37.772974 37.655919 37.538729 37.421508 37.304281 37.187142 37.070110 36.953270 36.836633 36.720276 36.604201 36.488476 36.373096 36.258118 36.143533 36.029387 35.915664 35.802403 35.689581 35.577227 35.465314 35.353863 35.242843 35.132265 35.022095 34.912337 34.802955 34.693945 34.585269 34.476915 34.368845 34.261042 34.153467 34.046097 33.938892 33.831828 33.724864 33.617971 33.511111
33.888889 34.026513 34.164177 34.301922 34.439783 34.577806 34.716021 34.854472 34.993186 35.132206 35.271552 35.411269 35.551366 35.691888 35.832836 35.974252 36.116127 36.258499 36.401353 36.544719 36.688571 36.832937 36.977778 37.123115 37.268899 37.415143 37.561787 37.708836 37.856217 38.003928 38.151883 38.300072 38.448397 38.596839 38.745287 38.893714 39.041998 39.190102 39.337894 39.485328 39.632262 39.778643 39.924321 40.069233 40.213224 40.356224 40.498073 40.638696 40.777928 40.915692 41.051820 41.186233 41.318765 41.449334 41.577776 41.704013 41.827883 41.949310 42.068140 42.184300 42.297644 42.408104 42.515543 42.619900 42.721047 42.818931 42.913436 43.004515 43.092063 43.176042 43.256359 43.332981 43.405828 43.474874 43.540051 43.601338 43.658678 43.712057 43.761425 43.806773 43.848062 43.885286 43.918414 43.947442 43.972348 43.993129 44.009771 44.022272 44.030623 44.034824 44.034872 44.030769 44.022517 44.010117 43.993579 43.972906 43.948112 43.919203 43.886200 43.849109 43.807961 43.762764 43.713557 43.660352 43.603197 43.542108 43.477144 43.408325 43.335723 43.259363 43.179327 43.095649 43.008422 42.917686 42.823547 42.726053 42.625322 42.521408 42.414439 42.304479 42.191665 42.076066 41.957831 41.837033 41.713827 41.588292 41.460589 41.330799 41.199088 41.065537 40.930315 40.793501 40.655266 40.515688 40.374933 40.233077 40.090282 39.946619 39.802245 39.657223 39.511704 39.365744 39.219486 39.072976 38.926348 38.779639 38.632974 38.486379 38.339968 38.193759 38.047852 37.902257 37.757063 37.612270 37.467954 37.324107 37.180793 37.037997 36.895771 36.754090 36.612997 36.472461 36.332512 36.193114 36.054287 35.915989 35.778230 35.640966 35.504195 35.367872 35.231987 35.096491 34.961367 34.826565 34.692060 34.557804 34.423764 34.289893 34.156153 34.022499 33.888889
34.266667 34.431873 34.597128 34.762478 34.927975 35.093659 35.259584 35.425784 35.592314 35.759200 35.926497 36.094222 36.262430 36.431127 36.600366 36.770143 36.940506 37.111440 37.282989 37.455125 37.627887 37.801234 37.975196 38.149721 38.324830 38.500457 38.676614 38.853221 39.030280 39.207695 39.385460 39.563465 39.741690 39.920012 40.098402 40.276721 40.454929 40.632875 40.810506 40.987661 41.164276 41.340177 41.515294 41.689442 41.862543 42.034403 42.204938 42.373949 42.541345 42.706925 42.870594 43.032150 43.191497 43.348434 43.502865 43.654593 43.803524 43.949468 44.092335 44.231943 44.368208 44.500959 44.630117 44.755524 44.877111 44.994730 45.108322 45.217755 45.322976 45.423868 45.520388 45.612433 45.699968 45.782904 45.861215 45.934824 46.003711 46.067815 46.127120 46.181575 46.231171 46.275867 46.315657 46.350510 46.380423 46.405373 46.425359 46.440367 46.450396 46.455440 46.455498 46.450572 46.440661 46.425774 46.405913 46.381092 46.351314 46.316604 46.276964 46.232428 46.183001 46.128727 46.069615 46.005719 45.937053 45.863682 45.785627 45.702965 45.615723 45.523993 45.427810 45.327278 45.222442 45.113421 45.000268 44.883117 44.762030 44.637154 44.508560 44.376409 44.240780 44.101846 43.959693 43.814503 43.666369 43.515483 43.361939 43.205937 43.047574 42.887053 42.724470 42.560031 42.393832 42.226075 42.056852 41.886365 41.714700 41.542051 41.368497 41.194227 41.019310 40.843926 40.668134 40.492102 40.315880 40.139624 39.963373 39.787268 39.611339 39.435711 39.260404 39.085529 38.911094 38.737195 38.563830 38.391082 38.218936 38.047463 37.876637 37.706515 37.537064 37.368326 37.200262 37.032900 36.866194 36.700161 36.534750 36.369965 36.205750 36.042101 35.878958 35.716305 35.554083 35.392267 35.230796 35.069636 34.908728 34.748031 34.587488 34.427052 34.266667
34.644444 34.837264 35.030139 35.223129 35.416286 35.609672 35.803330 35.997326 36.191693 36.386498 36.581766 36.777562 36.973900 37.170842 37.368392 37.566608 37.765481 37.965064 38.165333 38.366337 38.568036 38.770471 38.973588 39.177417 39.381890 39.587027 39.792741 39.999043 40.205830 40.413099 40.620731 40.828710 41.036900 41.245273 41.453676 41.662067 41.870277 42.078253 42.285810 42.492881 42.699268 42.904894 43.109547 43.313140 43.515451 43.716383 43.915708 44.113320 44.308986 44.502595 44.693911 44.882821 45.069087 45.252597 45.433117 45.610534 45.784621 45.955270 46.122263 46.285496 46.444764 46.599969 46.750919 46.897527 47.039616 47.177107 47.309840 47.437748 47.560686 47.678598 47.791356 47.898916 48.001165 48.098069 48.189533 48.275529 48.355977 48.430860 48.500110 48.563715 48.621623 48.673824 48.720278 48.760981 48.795901 48.825037 48.848368 48.865893 48.877600 48.883489 48.883557 48.877804 48.866235 48.848851 48.825666 48.796681 48.761919 48.721382 48.675104 48.623088 48.565379 48.501985 48.432960 48.358319 48.278130 48.192411 48.101246 48.004661 47.902754 47.795561 47.683195 47.565703 47.443215 47.315787 47.183567 47.046622 46.905116 46.759127 46.608836 46.454330 46.295805 46.133358 45.967197 45.797428 45.624271 45.447835 45.268351 45.085932 44.900813 44.713111 44.523063 44.330785 44.136515 43.940365 43.742572 43.543242 43.342605 43.140760 42.937932 42.734209 42.529804 42.324796 42.119387 41.913643 41.707751 41.501765 41.295859 41.090073 40.884562 40.679356 40.474593 40.270287 40.066562 39.863419 39.660964 39.459185 39.258172 39.057901 38.858446 38.659774 38.461940 38.264902 38.068700 37.873286 37.678683 37.484835 37.291754 37.099376 36.907701 36.716662 36.526246 36.336382 36.147045 35.958167 35.769710 35.581606 35.393809 35.206251 35.018881 34.831631 34.644444
35.022222 35.242688 35.463221 35.683883 35.904744 36.125858 36.347300 36.569116 36.791379 37.014126 37.237432 37.461319 37.685863 37.911073 38.137020 38.363700 38.591178 38.819436 39.048533 39.278433 39.509188 39.740746 39.973147 40.206321 40.440300 40.674993 40.910420 41.146472 41.383154 41.620339 41.858017 42.096041 42.334388 42.572891 42.811510 43.050061 43.288489 43.526591 43.764298 44.001390 44.237783 44.473244 44.707675 44.940829 45.172597 45.402722 45.631086 45.857424 46.081609 46.303372 46.522583 46.738969 46.952398 47.162601 47.369445 47.572667 47.772137 47.967600 48.158933 48.345891 48.528360 48.706111 48.879037 49.046926 49.209683 49.367115 49.519138 49.665578 49.806365 49.941343 50.070455 50.193565 50.310627 50.421525 50.526224 50.624625 50.716704 50.802377 50.881627 50.954389 51.020651 51.080361 51.133512 51.180065 51.220017 51.253338 51.280029 51.300070 51.313462 51.320197 51.320274 51.313696 51.300461 51.280581 51.254057 51.220908 51.181137 51.134774 51.081823 51.022326 50.956290 50.883769 50.804776 50.719379 50.627597 50.529513 50.425154 50.314621 50.197949 50.075259 49.946595 49.812098 49.671825 49.525934 49.374496 49.217689 49.055597 48.888416 48.716242 48.539291 48.357670 48.171610 47.981228 47.786772 47.588364 47.386264 47.180603 46.971647 46.759529 46.544522 46.326761 46.106519 45.883929 45.659263 45.432649 45.204354 44.974499 44.743344 44.510998 44.277712 44.043584 43.808851 43.573597 43.338046 43.102268 42.866467 42.630700 42.395155 42.159870 41.925016 41.690615 41.456819 41.223636 40.991196 40.759494 40.528640 40.298615 40.069511 39.841294 39.614039 39.387702 39.162336 38.937890 38.714399 38.491801 38.270118 38.049280 37.829292 37.610079 37.391633 37.173874 36.956780 36.740270 36.524309 36.308816 36.093745 35.879015 35.664571 35.450335 35.236244 35.022222
35.400000 35.648153 35.896380 36.144758 36.393354 36.642251 36.891505 37.141201 37.391386 37.642146 37.893514 38.145574 38.398348 38.651917 38.906286 39.161532 39.417644 39.674692 39.932647 40.191572 40.451419 40.712240 40.973968 41.236642 41.500175 41.764594 42.029791 42.295776 42.562419 42.829717 43.097517 43.365799 43.634388 43.903246 44.172178 44.441128 44.709879 44.978359 45.246331 45.513706 45.780230 46.045797 46.310137 46.573131 46.834495 47.094097 47.351643 47.606991 47.859840 48.110043 48.357292 48.601436 48.842170 49.079341 49.312648 49.541939 49.766922 49.987450 50.203244 50.414165 50.619946 50.820461 51.015461 51.204831 51.388343 51.565896 51.737281 51.902414 52.061108 52.213292 52.358803 52.497585 52.629495 52.754489 52.872448 52.983339 53.087063 53.183595 53.272856 53.354830 53.429451 53.496712 53.556561 53.608996 53.653978 53.691506 53.721556 53.744126 53.759203 53.766787 53.766874 53.759465 53.744566 53.722177 53.692315 53.654981 53.610202 53.557980 53.498356 53.431334 53.356967 53.275265 53.186294 53.090072 52.986681 52.876147 52.758570 52.633986 52.502516 52.364206 52.219200 52.067556 51.909439 51.744924 51.574197 51.397347 51.214584 51.026009 50.831856 50.632240 50.427413 50.217502 50.002779 49.783381 49.559595 49.331565 49.099590 48.863821 48.624563 48.381970 48.136351 47.887859 47.636805 47.383336 47.127760 46.870217 46.611006 46.350260 46.088267 45.825145 45.561171 45.296448 45.031237 44.765626 44.499857 44.234000 43.968279 43.702746 43.437604 43.172888 42.908777 42.645291 42.382586 42.120664 41.859660 41.599560 41.340477 41.082382 40.825365 40.569385 40.314511 40.060689 39.807968 39.556284 39.305668 39.056045 38.807428 38.559736 38.312966 38.067030 37.821909 37.577513 37.333809 37.090704 36.848151 36.606060 36.364371 36.122995 35.881864 35.640891 35.400000
35.777778 36.053660 36.329627 36.605758 36.882145 37.158855 37.435985 37.713591 37.991771 38.270569 38.550083 38.830343 39.111442 39.393396 39.676295 39.960136 40.245003 40.530873 40.817822 41.105809 41.394898 41.685025 41.976244 42.268469 42.561738 42.855942 43.151104 43.447091 43.743909 44.041400 44.339552 44.638182 44.937258 45.236575 45.536080 45.835543 46.134893 46.433876 46.732403 47.030198 47.327152 47.622972 47.917531 48.210519 48.501795 48.791034 49.078083 49.362607 49.644443 49.923250 50.198858 50.470925 50.739278 51.003577 51.263649 51.519163 51.769950 52.015689 52.256219 52.491234 52.720585 52.943983 53.161294 53.372250 53.576730 53.774492 53.965431 54.149330 54.326100 54.495549 54.657605 54.812102 54.958983 55.098105 55.229428 55.352831 55.468284 55.575690 55.675028 55.766220 55.849253 55.924067 55.990655 56.048971 56.099012 56.140746 56.174172 56.199270 56.216040 56.224473 56.224570 56.216332 56.199758 56.174862 56.141643 56.100126 56.050310 55.992231 55.925893 55.851345 55.768594 55.677703 55.578687 55.471627 55.356542 55.233536 55.102638 54.963971 54.817578 54.663606 54.502110 54.333262 54.157133 53.973921 53.783713 53.586731 53.383082 53.173011 52.956641 52.734241 52.505949 52.272058 52.032716 51.788235 51.538776 51.284664 51.026070 50.763329 50.496615 50.226272 49.952475 49.675570 49.395727 49.113293 48.828431 48.541481 48.252596 47.962107 47.670153 47.377052 47.082929 46.788083 46.492623 46.196829 45.900791 45.604767 45.308827 45.013208 44.717960 44.423294 44.129241 43.835987 43.543545 43.252075 42.961570 42.672168 42.383844 42.096710 41.810726 41.525981 41.242419 40.960106 40.678975 40.399070 40.120312 39.842724 39.566220 39.290802 39.016376 38.742930 38.470362 38.198642 37.927669 37.657396 37.387720 37.118582 36.849879 36.581541 36.313467 36.045578 35.777778
36.155556 36.459214 36.762963 37.066903 37.371116 37.675704 37.980741 38.286332 38.592536 38.899459 39.207147 39.515703 39.825156 40.135607 40.447066 40.759627 41.073281 41.388114 41.704094 42.021299 42.339673 42.659280 42.980041 43.302007 43.625071 43.949269 44.274468 44.600683 44.927758 45.255687 45.584284 45.913525 46.243197 46.573252 46.903452 47.233726 47.563809 47.893609 48.222837 48.551380 48.878923 49.205336 49.530283 49.853615 50.174981 50.494213 50.810948 51.125007 51.436015 51.743786 52.047939 52.348283 52.644438 52.936211 53.223227 53.505297 53.782056 54.053322 54.318744 54.578151 54.831212 55.077770 55.317516 55.550308 55.775865 55.994061 56.204644 56.407508 56.602426 56.789312 56.967970 57.138330 57.300223 57.453598 57.598313 57.734329 57.861530 57.979891 58.089316 58.189790 58.281239 58.363656 58.436981 58.501214 58.556312 58.602276 58.639077 58.666716 58.685178 58.694465 58.694572 58.685499 58.667253 58.639835 58.603263 58.557537 58.502687 58.438714 58.365663 58.283539 58.192400 58.092256 57.983186 57.865204 57.738410 57.602829 57.458582 57.305707 57.144351 56.974567 56.796526 56.610300 56.416088 56.213978 56.004200 55.786861 55.562219 55.330399 55.091688 54.846229 54.594333 54.336160 54.072046 53.802163 53.526865 53.246337 52.960947 52.670887 52.376536 52.078088 51.775927 51.470247 51.161432 50.849671 50.535343 50.218626 49.899893 49.579308 49.257228 48.933804 48.609377 48.284077 47.958224 47.631930 47.305492 46.978999 46.652724 46.326735 46.001276 45.676394 45.352308 45.029039 44.706780 44.385533 44.065461 43.746546 43.428924 43.112559 42.797560 42.483874 42.171584 41.860622 41.551047 41.242778 40.935850 40.630170 40.325752 40.022496 39.720392 39.419335 39.119298 38.820168 38.521902 38.224386 37.927560 37.631311 37.335564 37.040208 36.745158 36.450306 36.155556
36.533333 36.864815 37.196401 37.528190 37.860293 38.192796 38.525814 38.859422 39.193735 39.528813 39.864773 40.201656 40.539575 40.878553 41.218699 41.560014 41.902598 42.246431 42.591603 42.938069 43.285907 43.635045 43.985547 44.337313 44.690391 45.044653 45.400125 45.756653 46.114242 46.472705 46.832027 47.191990 47.552555 47.913475 48.274687 48.635913 48.997065 49.357839 49.718121 50.077581 50.436083 50.793270 51.148987 51.502856 51.854701 52.204128 52.550945 52.894745 53.235324 53.572267 53.905360 54.234188 54.558533 54.877982 55.192318 55.501137 55.804228 56.101201 56.391856 56.675820 56.952909 57.222773 57.485244 57.740002 57.986897 58.225638 58.456097 58.678014 58.891284 59.095677 59.291110 59.477386 59.654439 59.822102 59.980330 60.128983 60.268030 60.397358 60.516948 60.626710 60.726635 60.816654 60.896762 60.966909 61.027095 61.077285 61.117480 61.147658 61.167822 61.177962 61.178078 61.168172 61.148244 61.118307 61.078361 61.028430 60.968514 60.898651 60.818842 60.729142 60.629555 60.520155 60.400950 60.272036 60.133431 59.985254 59.827535 59.660418 59.483950 59.298303 59.103542 58.899869 58.687368 58.466274 58.236692 57.998887 57.752989 57.499293 57.237949 56.969283 56.693465 56.410848 56.121619 55.826155 55.524657 55.217521 54.904958 54.587379 54.265000 53.938241 53.607320 53.272659 52.934472 52.593179 52.248986 51.902305 51.553329 51.202458 50.849869 50.495943 50.140839 49.784919 49.428316 49.071370 48.714192 48.357094 48.000162 47.643679 47.287709 46.932504 46.578102 46.224726 45.872390 45.521286 45.171405 44.822910 44.475770 44.130117 43.785902 43.443229 43.102030 42.762380 42.424198 42.087532 41.752288 41.418488 41.086027 40.754907 40.425011 40.096320 39.768712 39.442148 39.116502 38.791717 38.467667 38.144277 37.821423 37.499016 37.176935 36.855079 36.533333
36.911111 37.270469 37.629939 37.989639 38.349672 38.710162 39.071197 39.432905 39.795361 40.158692 40.522954 40.888275 41.254692 41.622325 41.991191 42.361404 42.732956 43.105953 43.480359 43.856269 44.233621 44.612492 44.992793 45.374584 45.757746 46.142317 46.528148 46.915255 47.303455 47.692744 48.082902 48.473901 48.865489 49.257609 49.649979 50.042514 50.434898 50.827022 51.218538 51.609310 51.998963 52.387336 52.774029 53.158858 53.541401 53.921454 54.298580 54.672557 55.042937 55.409488 55.771754 56.129496 56.482259 56.829803 57.171679 57.507651 57.837283 58.160347 58.476427 58.785308 59.086598 59.380101 59.665451 59.942475 60.210839 60.470393 60.720837 60.962044 61.193752 61.415856 61.628130 61.830493 62.022751 62.204847 62.376618 62.538024 62.688934 62.829323 62.959084 63.078206 63.186606 63.284281 63.371168 63.447268 63.512537 63.566979 63.610564 63.643296 63.665159 63.676155 63.676281 63.665537 63.643930 63.611459 63.568144 63.513981 63.449005 63.373212 63.286650 63.189319 63.081286 62.962554 62.833211 62.693270 62.542840 62.381947 62.210728 62.029224 61.837600 61.635916 61.424371 61.203045 60.972172 60.731854 60.482362 60.223821 59.956537 59.680662 59.396534 59.104328 58.804415 58.496992 58.182458 57.861026 57.533121 57.198970 56.859016 56.513496 56.162864 55.807362 55.447451 55.083371 54.715583 54.344320 53.970038 53.592958 53.213525 52.831942 52.448639 52.063798 51.677827 51.290887 50.903360 50.515381 50.127304 49.739239 49.351508 48.964194 48.577587 48.191741 47.806915 47.423137 47.040631 46.659398 46.279630 45.901305 45.524581 45.149414 44.775929 44.404062 44.033908 43.665385 43.298558 42.933330 42.569737 42.207670 41.847139 41.488023 41.130310 40.773870 40.418669 40.064570 39.711520 39.359380 39.008077 38.657473 38.307479 37.957959 37.608809 37.259898 36.911111
37.288889 37.676175 38.063588 38.451244 38.839277 39.227791 39.616925 40.006769 40.397463 40.789078 41.181755 41.575545 41.970586 42.366907 42.764638 43.163785 43.564469 43.966669 44.370494 44.775896 45.182967 45.591629 46.001958 46.413843 46.827339 47.242303 47.658766 48.076550 48.495663 48.915889 49.337210 49.759375 50.182336 50.605806 51.029708 51.453720 51.877734 52.301393 52.724562 53.146850 53.568093 53.987872 54.405995 54.822018 55.235724 55.646649 56.054556 56.458964 56.859621 57.256035 57.647946 58.034856 58.416502 58.792389 59.162256 59.525618 59.882221 60.231599 60.573508 60.907510 61.233377 61.550699 61.859271 62.158718 62.448860 62.729357 63.000058 63.260660 63.511041 63.750937 63.980252 64.198761 64.406392 64.602958 64.788409 64.962591 65.125473 65.276931 65.416949 65.545431 65.662372 65.767697 65.861409 65.943455 66.013839 66.072526 66.119521 66.154801 66.178373 66.190225 66.190360 66.178780 66.155483 66.120484 66.073779 66.015394 65.945323 65.863609 65.770245 65.665290 65.548744 65.420683 65.281114 65.130138 64.967771 64.794143 64.609286 64.413357 64.206407 63.988630 63.760099 63.521042 63.271558 63.011914 62.742236 62.462831 62.173851 61.875642 61.568384 61.252460 60.928074 60.595644 60.255397 59.907778 59.553034 59.191634 58.823836 58.450128 58.070777 57.686279 57.296903 56.903150 56.505283 56.103800 55.698954 55.291233 54.880873 54.468348 54.053872 53.637900 53.220620 52.802461 52.383586 51.964392 51.545015 51.125820 50.706911 50.288620 49.871021 49.454409 49.038830 48.624541 48.211559 47.800106 47.390171 46.981940 46.575376 46.170630 45.767643 45.366530 44.967212 44.569773 44.174113 43.780287 43.388179 42.997815 42.609066 42.221929 41.836269 41.452056 41.069147 40.687490 40.306937 39.927416 39.548776 39.170929 38.793723 38.417054 38.040775 37.664766 37.288889
37.666667 38.081938 38.497342 38.913020 39.329095 39.745714 40.162983 40.581055 41.000019 41.420027 41.841149 42.263534 42.687230 43.112382 43.539012 43.967256 44.397110 44.828698 45.261988 45.697087 46.133933 46.572616 47.013039 47.455272 47.899183 48.344819 48.792010 49.240778 49.690915 50.142414 50.595028 51.048721 51.503206 51.958414 52.414021 52.869924 53.325760 53.781395 54.236429 54.690696 55.143761 55.595427 56.045229 56.492943 56.938077 57.380382 57.819345 58.254697 58.685911 59.112705 59.534541 59.951130 60.361934 60.766663 61.164787 61.556018 61.939844 62.315989 62.683963 63.043508 63.394162 63.735692 64.067671 64.389892 64.701967 65.003719 65.294804 65.575073 65.844226 66.102145 66.348574 66.583423 66.806476 67.017672 67.216832 67.403917 67.578783 67.741411 67.891687 68.029605 68.155078 68.268111 68.368638 68.456669 68.532158 68.595115 68.645511 68.683354 68.708630 68.721341 68.721486 68.709065 68.684084 68.646541 68.596456 68.533820 68.458668 68.370991 68.270837 68.158201 68.033150 67.895681 67.745887 67.583774 67.409461 67.222968 67.024444 66.813929 66.591607 66.357541 66.111952 65.854930 65.586738 65.307495 65.017507 64.716923 64.406093 64.085197 63.754627 63.414593 63.065527 62.707664 62.341472 61.967211 61.585376 61.196245 60.800339 60.397945 59.989598 59.575593 59.156474 58.732530 58.304306 57.872085 57.436404 56.997529 56.555983 56.112014 55.666122 55.218531 54.769715 54.319870 53.869439 53.418586 52.967721 52.516975 52.066722 51.617061 51.168324 50.720579 50.274120 49.828981 49.385418 48.943432 48.503240 48.064817 47.628340 47.193756 46.761206 46.330614 45.902083 45.475517 45.050986 44.628373 44.207718 43.788890 43.371895 42.956592 42.542960 42.130846 41.720206 41.310879 40.902799 40.495802 40.089798 39.684626 39.280177 38.876291 38.472844 38.069682 37.666667