<?xml version="1.0"?>
<VTKFile type="ImageData" version="0.1" byte_order="LittleEndian">
  <ImageData WholeExtent="0 180 0 180 0 0" Origin="0.0 0.0 0.0" Spacing="0.05 0.05 1">
    <Piece Extent="0 180 0 180 0 0">
      <PointData Scalars="Temperature">
        <DataArray type="Float32" Name="Temperature" format="ascii">
32.000000 32.000000 32.000000 32.000000 32.000000 32.000000 32.000000 32.000000 32.000000 32.000000 32.000000 32.000000 32.000000 32.000000 32.000000 32.000000 32.000000 32.000000 32.000000 32.000000 32.000000 32.000000 32.000000 32.000000 32.000000 32.000000 32.000000 32.000000 32.000000 32.000000 32.000000 32.000000 32.000000 32.000000 32.000000 32.000000 32.000000 32.000000 32.000000 32.000000 32.000000 32.000000 32.000000 32.000000 32.000000 32.000000 32.000000 32.000000 32.000000 32.000000 32.000000 32.000000 32.000000 32.000000 32.000000 32.000000 32.000000 32.000000 32.000000 32.000000 32.000000 32.000000 32.000000 32.000000 32.000000 32.000000 32.000000 32.000000 32.000000 32.000000 32.000000 32.000000 32.000000 32.000000 32.000000 32.000000 32.000000 32.000000 32.000000 32.000000 32.000000 32.000000 32.000000 32.000000 32.000000 32.000000 32.000000 32.000000 32.000000 32.000000 32.000000 32.000000 32.000000 32.000000 32.000000 32.000000 32.000000 32.000000 32.000000 32.000000 32.000000 32.000000 32.000000 32.000000 32.000000 32.000000 32.000000 32.000000 32.000000 32.000000 32.000000 32.000000 32.000000 32.000000 32.000000 32.000000 32.000000 32.000000 32.000000 32.000000 32.000000 32.000000 32.000000 32.000000 32.000000 32.000000 32.000000 32.000000 32.000000 32.000000 32.000000 32.000000 32.000000 32.000000 32.000000 32.000000 32.000000 32.000000 32.000000 32.000000 32.000000 32.000000 32.000000 32.000000 32.000000 32.000000 32.000000 32.000000 32.000000 32.000000 32.000000 32.000000 32.000000 32.000000 32.000000 32.000000 32.000000 32.000000 32.000000 32.000000 32.000000 32.000000 32.000000 32.000000 32.000000 32.000000 32.000000 32.000000 32.000000 32.000000 32.000000 32.000000 32.000000 32.000000 32.000000 32.000000 32.000000 32.000000 32.000000 32.000000 32.000000
32.377778 32.409429 32.441084 32.472744 32.504412 32.536092 32.567785 32.599494 32.631221 32.662968 32.694736 32.726527 32.758342 32.790181 32.822045 32.853933 32.885845 32.917780 32.949735 32.981709 33.013699 33.045701 33.077711 33.109725 33.141736 33.173740 33.205728 33.237693 33.269627 33.301521 33.333364 33.365146 33.396855 33.428480 33.460006 33.491420 33.522707 33.553853 33.584840 33.615652 33.646271 33.676680 33.706859 33.736791 33.766453 33.795828 33.824894 33.853631 33.882017 33.910033 33.937655 33.964864 33.991637 34.017955 34.043796 34.069141 34.093967 34.118257 34.141990 34.165149 34.187715 34.209671 34.230999 34.251685 34.271712 34.291067 34.309736 34.327707 34.344967 34.361505 34.377311 34.392377 34.406692 34.420250 34.433043 34.445065 34.456309 34.466772 34.476448 34.485334 34.493426 34.500721 34.507217 34.512911 34.517802 34.521888 34.525168 34.527642 34.529308 34.530167 34.530218 34.529461 34.527897 34.525527 34.522350 34.518369 34.513585 34.507998 34.501612 34.494429 34.486451 34.477681 34.468125 34.457784 34.446665 34.434772 34.422111 34.408690 34.394515 34.379594 34.363938 34.347553 34.330453 34.312646 34.294147 34.274966 34.255120 34.234621 34.213485 34.191728 34.169368 34.146421 34.122907 34.098843 34.074249 34.049145 34.023552 33.997488 33.970977 33.944039 33.916695 33.888966 33.860874 33.832439 33.803685 33.774629 33.745294 33.715699 33.685866 33.655811 33.625555 33.595114 33.564509 33.533753 33.502865 33.471859 33.440751 33.409553 33.378280 33.346943 33.315555 33.284126 33.252666 33.221183 33.189687 33.158185 33.126685 33.095191 33.063710 33.032246 33.000804 32.969386 32.937996 32.906634 32.875305 32.844006 32.812741 32.781508 32.750308 32.719139 32.688000 32.656889 32.625805 32.594745 32.563708 32.532689 32.501687 32.470698 32.439719 32.408747 32.377778
32.755556 32.818860 32.882169 32.945491 33.008829 33.072189 33.135576 33.198995 33.262451 33.325946 33.389485 33.453069 33.516702 33.580383 33.644115 33.707895 33.771724 33.835597 33.899514 33.963467 34.027454 34.091464 34.155493 34.219527 34.283560 34.347575 34.411562 34.475502 34.539382 34.603181 34.666881 34.730458 34.793892 34.857155 34.920224 34.983067 35.045660 35.107967 35.169960 35.231602 35.292861 35.353697 35.414077 35.473959 35.533306 35.592076 35.650231 35.707725 35.764520 35.820571 35.875839 35.930277 35.983846 36.036502 36.088206 36.138914 36.188588 36.237186 36.284672 36.331007 36.376156 36.420083 36.462757 36.504143 36.544212 36.582936 36.620287 36.656239 36.690770 36.723856 36.755479 36.785618 36.814257 36.841378 36.866971 36.891020 36.913514 36.934444 36.953801 36.971575 36.987762 37.002355 37.015348 37.026738 37.036521 37.044695 37.051256 37.056204 37.059537 37.061254 37.061356 37.059843 37.056714 37.051972 37.045618 37.037655 37.028084 37.016910 37.004135 36.989766 36.973807 36.956265 36.937147 36.916462 36.894217 36.870426 36.845099 36.818250 36.789892 36.760043 36.728719 36.695941 36.661728 36.626104 36.589091 36.550718 36.511010 36.469998 36.427710 36.384181 36.339442 36.293531 36.246483 36.198336 36.149128 36.098900 36.047691 35.995545 35.942501 35.888603 35.833892 35.778414 35.722207 35.665318 35.607785 35.549654 35.490963 35.431754 35.372065 35.311936 35.251404 35.190506 35.129275 35.067748 35.005954 34.943927 34.881693 34.819284 34.756723 34.694037 34.631247 34.568377 34.505444 34.442469 34.379467 34.316455 34.253444 34.190449 34.127479 34.064545 34.001654 33.938813 33.876026 33.813299 33.750635 33.688035 33.625501 33.563033 33.500629 33.438289 33.376008 33.313786 33.251616 33.189496 33.127419 33.065381 33.003376 32.941397 32.879439 32.817494 32.755556
33.133333 33.228292 33.323258 33.418242 33.513252 33.608295 33.703379 33.798511 33.893698 33.988946 34.084259 34.179642 34.275097 34.370628 34.466233 34.561914 34.657667 34.753491 34.849377 34.945324 35.041317 35.137352 35.233412 35.329486 35.425554 35.521602 35.617606 35.713545 35.809392 35.905122 36.000702 36.096104 36.191288 36.286222 36.380861 36.475170 36.569099 36.662606 36.755638 36.848150 36.940084 37.031390 37.122008 37.211885 37.300956 37.389166 37.476449 37.562747 37.647992 37.732125 37.815078 37.896791 37.977196 38.056235 38.133840 38.209955 38.284513 38.357461 38.428735 38.498284 38.566050 38.631984 38.696032 38.758150 38.818288 38.876408 38.932465 38.986424 39.038247 39.087902 39.135358 39.180588 39.223564 39.264266 39.302669 39.338756 39.372510 39.403916 39.432960 39.459631 39.483917 39.505812 39.525307 39.542397 39.557075 39.569338 39.579182 39.586605 39.591605 39.594182 39.594334 39.592063 39.587369 39.580255 39.570722 39.558773 39.544413 39.527647 39.508480 39.486920 39.462975 39.436653 39.407966 39.376926 39.343549 39.307847 39.269841 39.229549 39.186994 39.142198 39.095190 39.045996 38.994651 38.941184 38.885635 38.828040 38.768444 38.706885 38.643416 38.578079 38.510929 38.442016 38.371398 38.299128 38.225268 38.149873 38.073010 37.994736 37.915118 37.834216 37.752098 37.668823 37.584461 37.499071 37.412721 37.325469 37.237382 37.148515 37.058933 36.968689 36.877844 36.786448 36.694558 36.602221 36.509491 36.416407 36.323020 36.229367 36.135492 36.041427 35.947212 35.852875 35.758449 35.663958 35.569432 35.474888 35.380352 35.285838 35.191367 35.096947 35.002595 34.908318 34.814126 34.720023 34.626017 34.532107 34.438299 34.344588 34.250977 34.157459 34.064035 33.970696 33.877439 33.784255 33.691138 33.598078 33.505069 33.412099 33.319160 33.226242 33.133333
33.511111 33.637726 33.764352 33.891001 34.017685 34.144414 34.271199 34.398048 34.524972 34.651977 34.779072 34.906260 35.033547 35.160934 35.288425 35.416017 35.543709 35.671494 35.799370 35.927323 36.055346 36.183422 36.311539 36.439673 36.567807 36.695912 36.823966 36.951933 37.079785 37.207479 37.334981 37.462243 37.589224 37.715869 37.842132 37.967949 38.093270 38.218024 38.342156 38.465589 38.588261 38.710092 38.831013 38.950942 39.069804 39.187514 39.303995 39.419156 39.532920 39.645196 39.755904 39.864952 39.972262 40.077743 40.181316 40.282894 40.382401 40.479751 40.574874 40.667688 40.758126 40.846113 40.931587 41.014479 41.094733 41.172286 41.247089 41.319087 41.388236 41.454489 41.517807 41.578152 41.635490 41.689789 41.741024 41.789165 41.834194 41.876088 41.914831 41.950406 41.982803 42.012006 42.038009 42.060802 42.080380 42.096735 42.109864 42.119764 42.126433 42.129869 42.130072 42.127043 42.120782 42.111293 42.098577 42.082641 42.063487 42.041124 42.015558 41.986800 41.954859 41.919748 41.881480 41.840075 41.795546 41.747919 41.697214 41.643460 41.586682 41.526916 41.464194 41.398557 41.330043 41.258702 41.184576 41.107722 41.028191 40.946045 40.861341 40.774150 40.684533 40.592567 40.498319 40.401872 40.303296 40.202678 40.100094 39.995633 39.889373 39.781406 39.671810 39.560679 39.448092 39.334141 39.218904 39.102472 38.984921 38.866339 38.746798 38.626384 38.505164 38.383219 38.260611 38.137417 38.013693 37.889510 37.764918 37.639981 37.514745 37.389265 37.263582 37.137746 37.011788 36.885754 36.759669 36.633570 36.507479 36.381426 36.255426 36.129504 36.003670 35.877942 35.752327 35.626837 35.501474 35.376245 35.251150 35.126190 35.001361 34.876663 34.752086 34.627628 34.503277 34.379027 34.254866 34.130783 34.006767 33.882805 33.758884 33.634991 33.511111
33.888889 34.047163 34.205451 34.363770 34.522131 34.680551 34.839040 34.997613 35.156279 35.315050 35.473933 35.632937 35.792065 35.951323 36.110711 36.270231 36.429876 36.589646 36.749527 36.909514 37.069587 37.229736 37.389935 37.550166 37.710396 37.870601 38.030740 38.190782 38.350679 38.510391 38.669861 38.829043 38.987873 39.146294 39.304235 39.461633 39.618407 39.774486 39.929782 40.084219 40.237699 40.390140 40.541440 40.691510 40.840242 40.987543 41.133300 41.277419 41.419784 41.560296 41.698840 41.835316 41.969611 42.101624 42.231243 42.358371 42.482901 42.604738 42.723778 42.839935 42.953110 43.063222 43.170180 43.273912 43.374333 43.471378 43.564973 43.655061 43.741576 43.824469 43.903683 43.979179 44.050907 44.118834 44.182921 44.243140 44.299461 44.351862 44.400317 44.444812 44.485327 44.521850 44.554368 44.582872 44.607353 44.627805 44.644222 44.656602 44.664940 44.669236 44.669490 44.665701 44.657872 44.646004 44.630104 44.610173 44.586221 44.558254 44.526282 44.490314 44.450367 44.406452 44.358591 44.306799 44.251103 44.191526 44.128100 44.060852 43.989825 43.915052 43.836582 43.754458 43.668737 43.579468 43.486719 43.390548 43.291030 43.188231 43.082235 42.973117 42.860968 42.745871 42.627924 42.507215 42.383849 42.257920 42.129537 41.998798 41.865816 41.730691 41.593538 41.454456 41.313563 41.170958 41.026754 40.881050 40.733958 40.585571 40.435998 40.285327 40.133662 39.981085 39.827694 39.673564 39.518787 39.363431 39.207579 39.051292 38.894644 38.737689 38.580494 38.423104 38.265576 38.107949 37.950272 37.792575 37.634900 37.477270 37.319718 37.162261 37.004925 36.847719 36.690664 36.533764 36.377031 36.220465 36.064073 35.907850 35.751796 35.595905 35.440171 35.284584 35.129137 34.973815 34.818607 34.663497 34.508473 34.353516 34.198611 34.043741 33.888889
34.266667 34.456603 34.646558 34.836549 35.026593 35.216707 35.406908 35.597209 35.787627 35.978170 36.168854 36.359682 36.550667 36.741809 36.933114 37.124577 37.316200 37.507973 37.699890 37.891934 38.084095 38.276345 38.468669 38.661031 38.853406 39.045751 39.238032 39.430195 39.622200 39.813983 40.005492 40.196655 40.387411 40.577677 40.767382 40.956434 41.144754 41.332238 41.518798 41.704324 41.888718 42.071861 42.253649 42.433955 42.612670 42.789661 42.964813 43.137989 43.309072 43.477922 43.644420 43.808425 43.969819 44.128464 44.284241 44.437016 44.586675 44.733089 44.876149 45.015733 45.151739 45.284053 45.412582 45.537222 45.657888 45.774486 45.886941 45.995172 46.099112 46.198690 46.293851 46.384534 46.470694 46.552279 46.629253 46.701573 46.769213 46.832138 46.890327 46.943754 46.992403 47.036255 47.075298 47.109520 47.138912 47.163465 47.183175 47.198036 47.208046 47.213202 47.213506 47.208956 47.199556 47.185308 47.166217 47.142289 47.113530 47.079951 47.041561 46.998375 46.950405 46.897673 46.840196 46.778000 46.711109 46.639557 46.563375 46.482605 46.397285 46.307468 46.213200 46.114543 46.011554 45.904306 45.792865 45.677315 45.557731 45.434210 45.306835 45.175713 45.040938 44.902625 44.760877 44.615816 44.467553 44.316217 44.161923 44.004807 43.844988 43.682604 43.517775 43.350641 43.181324 43.009963 42.836677 42.661602 42.484854 42.306567 42.126851 41.945833 41.763616 41.580323 41.396048 41.210904 41.024980 40.838379 40.651180 40.463476 40.275338 40.086849 39.898069 39.709073 39.519910 39.330644 39.141318 38.951984 38.762675 38.573434 38.384287 38.195268 38.006393 37.817688 37.629162 37.440834 37.252706 37.064789 36.877079 36.689582 36.502288 36.315196 36.128293 35.941573 35.755020 35.568622 35.382361 35.196222 35.010185 34.824232 34.638341 34.452493 34.266667
34.644444 34.866048 35.087673 35.309341 35.531071 35.752887 35.974804 36.196843 36.419018 36.641347 36.863840 37.086510 37.309363 37.532409 37.755647 37.979080 38.202702 38.426510 38.650489 38.874630 39.098908 39.323308 39.547793 39.772341 39.996905 40.221453 40.445927 40.670285 40.894458 41.118392 41.342008 41.565241 41.788000 42.010208 42.231763 42.452576 42.672534 42.891538 43.109463 43.326201 43.541616 43.755590 43.967979 44.178658 44.387473 44.594293 44.798960 45.001335 45.201259 45.398589 45.593162 45.784838 45.973453 46.158866 46.340918 46.519473 46.694374 46.865490 47.032675 47.195804 47.354739 47.509364 47.659552 47.805199 47.946188 48.082426 48.213811 48.340261 48.461684 48.578013 48.689170 48.795095 48.895726 48.991014 49.080905 49.165364 49.244346 49.317824 49.385764 49.448144 49.504940 49.556136 49.601714 49.641664 49.675973 49.704634 49.727639 49.744985 49.756668 49.762686 49.763039 49.757728 49.746754 49.730121 49.707836 49.679902 49.646330 49.607127 49.562310 49.511888 49.455884 49.394312 49.327200 49.254571 49.176461 49.092898 49.003928 48.909590 48.809938 48.705020 48.594904 48.479649 48.359334 48.234029 48.103827 47.968810 47.829082 47.684739 47.535897 47.382662 47.225163 47.063516 46.897861 46.728322 46.555049 46.378173 46.197851 46.014220 45.827443 45.637658 45.445031 45.249703 45.051840 44.851582 44.649091 44.444507 44.237987 44.029664 43.819692 43.608196 43.395322 43.181188 42.965930 42.749656 42.532493 42.314539 42.095908 41.876689 41.656985 41.436871 41.216440 40.995756 40.774899 40.553923 40.332896 40.111861 39.890875 39.669969 39.449190 39.228561 39.008117 38.787872 38.567852 38.348063 38.128522 37.909226 37.690186 37.471392 37.252847 37.034538 36.816459 36.598594 36.380930 36.163448 35.946131 35.728957 35.511906 35.294952 35.078075 34.861247 34.644444
35.022222 35.275496 35.528795 35.782144 36.035568 36.289089 36.542732 36.796514 37.050460 37.304582 37.558901 37.813424 38.068167 38.323133 38.578330 38.833754 39.089409 39.345278 39.601360 39.857630 40.114076 40.370663 40.627370 40.884151 41.140973 41.397779 41.654525 41.911141 42.167571 42.423731 42.679553 42.934941 43.189812 43.444057 43.697581 43.950259 44.201986 44.452623 44.702053 44.950124 45.196708 45.441642 45.684788 45.925973 46.165050 46.401839 46.636185 46.867904 47.096834 47.322789 47.545605 47.765094 47.981093 48.193415 48.401902 48.606370 48.806666 49.002613 49.194066 49.380860 49.562856 49.739901 49.911869 50.078621 50.240042 50.396007 50.546417 50.691159 50.830149 50.963291 51.090512 51.211731 51.326890 51.435921 51.538778 51.635405 51.725767 51.809821 51.887540 51.958890 52.023854 52.082406 52.134534 52.180219 52.219454 52.252228 52.278534 52.298368 52.311726 52.318606 52.319008 52.312933 52.300383 52.281362 52.255875 52.223930 52.185534 52.140700 52.089439 52.031770 51.967708 51.897279 51.820504 51.737418 51.648050 51.552445 51.450640 51.342691 51.228648 51.108579 50.982545 50.850629 50.712905 50.569469 50.420409 50.265839 50.105858 49.940595 49.770163 49.594706 49.414349 49.229249 49.039543 48.845398 48.646962 48.444412 48.237902 48.027616 47.813716 47.596388 47.375796 47.152130 46.925553 46.696255 46.464395 46.230161 45.993707 45.755214 45.514830 45.272729 45.029049 44.783953 44.537571 44.290055 44.041522 43.792111 43.541929 43.291101 43.039720 42.787898 42.535715 42.283271 42.030631 41.777880 41.525074 41.272283 41.019550 40.766933 40.514463 40.262187 40.010123 39.758308 39.506751 39.255477 39.004487 38.753795 38.503395 38.253293 38.003475 37.753940 37.504668 37.255651 37.006865 36.758295 36.509914 36.261703 36.013632 35.765678 35.517810 35.270002 35.022222
35.400000 35.684948 35.969925 36.254961 36.540081 36.825316 37.110689 37.396227 37.681949 37.967881 38.254036 38.540433 38.827081 39.113994 39.401171 39.688620 39.976332 40.264306 40.552523 40.840974 41.129627 41.418464 41.707440 41.996526 42.285664 42.574812 42.863898 43.152868 43.441634 43.730127 44.018246 44.305907 44.592993 44.879406 45.165012 45.449699 45.733319 46.015744 46.296813 46.576383 46.854280 47.130349 47.404403 47.676278 47.945775 48.212721 48.476910 48.738162 48.996265 49.251036 49.502261 49.749753 49.993301 50.232719 50.467799 50.698361 50.924202 51.145151 51.361015 51.571632 51.776821 51.976432 52.170300 52.358288 52.540247 52.716055 52.885581 53.048718 53.205351 53.355392 53.498742 53.635327 53.765066 53.887899 54.003760 54.112603 54.214374 54.309040 54.396560 54.476908 54.550054 54.615982 54.674669 54.726103 54.770271 54.807165 54.836777 54.859102 54.874137 54.881880 54.882330 54.875489 54.861360 54.839946 54.811253 54.775287 54.732060 54.681580 54.623865 54.558928 54.486793 54.407478 54.321018 54.227438 54.126782 54.019085 53.904405 53.782787 53.654301 53.519007 53.376991 53.228326 53.073114 52.911445 52.743437 52.569195 52.388855 52.202539 52.010400 51.812573 51.609227 51.400513 51.186614 50.967692 50.743942 50.515536 50.282680 50.045552 49.804366 49.559303 49.310581 49.058384 48.802928 48.544398 48.283007 48.018934 47.752388 47.483542 47.212595 46.939712 46.665083 46.388860 46.111221 45.832306 45.552280 45.271269 44.989422 44.706853 44.423694 44.140044 43.856021 43.571707 43.287206 43.002585 42.717933 42.433302 42.148765 41.864364 41.580156 41.296169 41.012448 40.729009 40.445886 40.163082 39.880620 39.598496 39.316721 39.035281 38.754179 38.473396 38.192924 37.912739 37.632827 37.353158 37.073711 36.794456 36.515366 36.236406 35.957548 35.678757 35.400000
35.777778 36.094404 36.411063 36.727788 37.044612 37.361564 37.678677 37.995976 38.313491 38.631240 38.949251 39.267536 39.586115 39.904992 40.224183 40.543681 40.863493 41.183603 41.504008 41.824679 42.145603 42.466738 42.788059 43.109509 43.431050 43.752610 44.074137 44.395542 44.716757 45.037679 45.358222 45.678265 45.997706 46.316408 46.634252 46.951081 47.266763 47.581122 47.894010 48.205237 48.514639 48.822011 49.127176 49.429916 49.730043 50.027329 50.321576 50.612549 50.900043 51.183819 51.463669 51.739353 52.010663 52.277361 52.539242 52.796074 53.047660 53.293778 53.534240 53.768836 53.997391 54.219710 54.435634 54.644986 54.847622 55.043385 55.232149 55.413776 55.588158 55.755177 55.914744 56.066759 56.211150 56.347835 56.476758 56.597855 56.711081 56.816387 56.913741 57.003106 57.084460 57.157775 57.223038 57.280230 57.329342 57.370361 57.403284 57.428103 57.444817 57.453423 57.453921 57.446314 57.430601 57.406790 57.374884 57.334892 57.286821 57.230687 57.166499 57.094280 57.014045 56.925825 56.829643 56.725541 56.613550 56.493724 56.366109 56.230771 56.087768 55.937186 55.779097 55.613605 55.440799 55.260801 55.073720 54.879696 54.678856 54.471360 54.257354 54.037016 53.810507 53.578025 53.339744 53.095878 52.846613 52.592176 52.332765 52.068612 51.799924 51.526940 51.249869 50.968953 50.684400 50.396451 50.105312 49.811219 49.514371 49.214995 48.913283 48.609452 48.303680 47.996172 47.687094 47.376636 47.064947 46.752202 46.438536 46.124105 45.809026 45.493441 45.177449 44.861172 44.544696 44.228124 43.911524 43.594984 43.278556 42.962313 42.646291 42.330546 42.015104 41.700004 41.385260 41.070899 40.756922 40.443344 40.130157 39.817366 39.504952 39.192912 38.881219 38.569861 38.258808 37.948038 37.637516 37.327216 37.017101 36.707137 36.397286 36.087513 35.777778
36.155556 36.503862 36.852206 37.200625 37.549155 37.897833 38.246691 38.595763 38.945076 39.294662 39.644539 39.994736 40.345261 40.696137 41.047363 41.398952 41.750894 42.103192 42.455822 42.808777 43.162019 43.515528 43.869252 44.223156 44.577170 44.931246 45.285296 45.639256 45.993018 46.346501 46.699581 47.052154 47.404079 47.755234 48.105458 48.454610 48.802509 49.148998 49.493876 49.836968 50.178057 50.516953 50.853421 51.187258 51.518216 51.846080 52.170593 52.491530 52.808626 53.121652 53.430340 53.734458 54.033739 54.327953 54.616838 54.900170 55.177695 55.449198 55.714439 55.973215 56.225303 56.470515 56.708646 56.939528 57.162975 57.378838 57.586955 57.787197 57.979424 58.163528 58.339390 58.506923 58.666028 58.816636 58.958669 59.092074 59.216790 59.332777 59.439991 59.538403 59.627981 59.708706 59.780556 59.843519 59.897580 59.942733 59.978970 60.006288 60.024682 60.034152 60.034697 60.026320 60.009023 59.982808 59.947685 59.903656 59.850735 59.788930 59.718258 59.638734 59.550383 59.453225 59.347297 59.232628 59.109267 58.977255 58.836657 58.687526 58.529945 58.363984 58.189745 58.007316 57.816820 57.618366 57.412097 57.198143 56.976670 56.747828 56.511805 56.268770 56.018931 55.762477 55.499634 55.230605 54.955634 54.674936 54.388766 54.097351 53.800953 53.499804 53.194173 52.884292 52.570430 52.252820 51.931725 51.607373 51.280021 50.949885 50.617214 50.282214 49.945117 49.606116 49.265430 48.923232 48.579725 48.235066 47.889438 47.542980 47.195856 46.848185 46.500113 46.151739 45.803190 45.454548 45.105918 44.757365 44.408977 44.060801 43.712908 43.365330 43.018119 42.671295 42.324894 41.978923 41.633403 41.288330 40.943713 40.599536 40.255798 39.912475 39.569554 39.227006 38.884808 38.542924 38.201327 37.859976 37.518836 37.177865 36.837023 36.496268 36.155556
36.533333 36.913322 37.293353 37.673468 38.053710 38.434116 38.814728 39.195578 39.576705 39.958135 40.339901 40.722022 41.104524 41.487416 41.870718 42.254424 42.638546 43.023067 43.407985 43.793270 44.178906 44.564847 44.951063 45.337490 45.724083 46.110758 46.497454 46.884066 47.270514 47.656674 48.042444 48.427680 48.812260 49.196018 49.578811 49.960450 50.340774 50.719573 51.096663 51.471816 51.844830 52.215458 52.583480 52.948633 53.310683 53.669354 54.024401 54.375535 54.722505 55.065017 55.402814 55.735601 56.063121 56.385081 56.701230 57.011281 57.314992 57.612090 57.902342 58.185494 58.461329 58.729610 58.990142 59.242710 59.487139 59.723239 59.950859 60.169832 60.380031 60.581315 60.773578 60.956704 61.130609 61.295198 61.450408 61.596165 61.732421 61.859121 61.976231 62.083711 62.181539 62.269686 62.348140 62.416882 62.475904 62.525195 62.564752 62.594569 62.614645 62.624979 62.625571 62.616423 62.597536 62.568917 62.530568 62.482498 62.424714 62.357229 62.280054 62.193211 62.096715 61.990598 61.874884 61.749618 61.614834 61.470592 61.316942 61.153960 60.981712 60.800297 60.609799 60.410339 60.202024 59.984998 59.759391 59.525371 59.283091 59.032746 58.774510 58.508601 58.235217 57.954598 57.666959 57.372559 57.071632 56.764452 56.451264 56.132356 55.807980 55.478432 55.143968 54.804887 54.461445 54.113939 53.762621 53.407781 53.049664 52.688549 52.324669 51.958291 51.589632 51.218943 50.846424 50.472307 50.096774 49.720037 49.342257 48.963625 48.584281 48.204395 47.824086 47.443502 47.062742 46.681931 46.301149 45.920500 45.540046 45.159870 44.780015 44.400547 44.021493 43.642900 43.264780 42.887165 42.510052 42.133458 41.757371 41.381793 41.006700 40.632084 40.257914 39.884169 39.510812 39.137815 38.765133 38.392732 38.020564 37.648588 37.276755 36.905020 36.533333
36.911111 37.322783 37.734501 38.146315 38.558269 38.970410 39.382778 39.795418 40.208364 40.621657 41.035321 41.449393 41.863888 42.278833 42.694233 43.110104 43.526439 43.943242 44.360491 44.778178 45.196263 45.614723 46.033500 46.452555 46.871809 47.291206 47.710646 48.130051 48.549300 48.968296 49.386891 49.804968 50.222356 50.638914 51.054447 51.468791 51.881729 52.293073 52.702583 53.110050 53.515212 53.917839 54.317652 54.714402 55.107792 55.497561 55.883397 56.265026 56.642131 57.014428 57.381596 57.743349 58.099365 58.449363 58.793025 59.130077 59.460213 59.783170 60.098657 60.406430 60.706216 60.997791 61.280907 61.555362 61.820935 62.077448 62.324707 62.562562 62.790847 63.009436 63.218191 63.417013 63.605788 63.784440 63.952879 64.111050 64.258884 64.396341 64.523373 64.639953 64.746046 64.841638 64.926705 65.001238 65.065225 65.118661 65.161540 65.193860 65.215619 65.226817 65.227454 65.217533 65.197056 65.166026 65.124449 65.072328 65.009675 64.936495 64.852807 64.758622 64.653964 64.538854 64.413329 64.277417 64.131172 63.974636 63.807880 63.630964 63.443979 63.247005 63.040157 62.823538 62.597291 62.361540 62.116457 61.862193 61.598946 61.326895 61.046263 60.757255 60.460122 60.155089 59.842431 59.522394 59.195273 58.861330 58.520874 58.174181 57.821570 57.463324 57.099767 56.731185 56.357903 55.980203 55.598406 55.212787 54.823658 54.431282 54.035957 53.637932 53.237489 52.834858 52.430301 52.024029 51.616282 51.207248 50.797146 50.386140 49.974426 49.562145 49.149467 48.736512 48.323426 47.910305 47.497274 47.084407 46.671804 46.259522 45.847640 45.436193 45.025242 44.614807 44.204927 43.795607 43.386871 42.978710 42.571132 42.164115 41.757655 41.351720 40.946293 40.541335 40.136817 39.732694 39.328930 38.925473 38.522281 38.119300 37.716481 37.313769 36.911111
37.288889 37.732241 38.175647 38.619158 39.062827 39.506702 39.950835 40.395266 40.840046 41.285208 41.730794 42.176829 42.623349 43.070366 43.517907 43.965971 44.414573 44.863698 45.313348 45.763488 46.214107 46.665152 47.116592 47.568355 48.020392 48.472608 48.924932 49.377246 49.829457 50.281423 50.733026 51.184098 51.634498 52.084031 52.532531 52.979775 53.425573 53.869679 54.311874 54.751889 55.189483 55.624362 56.056265 56.484878 56.909922 57.331065 57.748013 58.160423 58.567989 58.970360 59.367226 59.758232 60.143069 60.521385 60.892874 61.257196 61.614055 61.963126 62.304129 62.636757 62.960753 63.275834 63.581767 63.878297 64.165218 64.442305 64.709381 64.966252 65.212771 65.448775 65.674144 65.888747 66.092489 66.285267 66.467010 66.637640 66.797107 66.945352 67.082345 67.208043 67.322428 67.425473 67.517169 67.597499 67.666460 67.724043 67.770247 67.805070 67.828512 67.840574 67.841256 67.830561 67.808490 67.775048 67.730236 67.674062 67.606528 67.527649 67.437429 67.335889 67.223042 67.098919 66.963541 66.816953 66.659190 66.490314 66.310376 66.119460 65.917639 65.705020 65.481698 65.247811 65.003480 64.748870 64.484132 64.209463 63.925042 63.631097 63.327836 63.015516 62.694374 62.364693 62.026734 61.680807 61.327191 60.966216 60.598177 60.223419 59.842248 59.455018 59.062039 58.663669 58.260218 57.852041 57.439442 57.022767 56.602312 56.178409 55.751338 55.321416 54.888903 54.454096 54.017235 53.578592 53.138383 52.696858 52.254208 51.810655 51.366365 50.921535 50.476305 50.030845 49.585271 49.139727 48.694305 48.249123 47.804251 47.359784 46.915770 46.472282 46.029348 45.587021 45.145310 44.704250 44.263835 43.824080 43.384967 42.946496 42.508636 42.071374 41.634668 41.198493 40.762801 40.327555 39.892701 39.458195 39.023977 38.589997 38.156194 37.722512 37.288889
37.666667 38.141697 38.616786 39.091993 39.567374 40.042987 40.518882 40.995116 41.471731 41.948779 42.426294 42.904319 43.382878 43.862005 44.341711 44.822019 45.302923 45.784435 46.266530 46.749206 47.232419 47.716147 48.200327 48.684917 49.169830 49.655004 50.140325 50.625709 51.111016 51.596135 52.080902 52.565177 53.048766 53.531505 54.013171 54.493571 54.972452 55.449596 55.924722 56.397583 56.867874 57.335322 57.799599 58.260410 58.717404 59.170268 59.618636 60.062181 60.500523 60.933326 61.360206 61.780822 62.194789 62.601772 63.001390 63.393317 63.777188 64.152689 64.519475 64.877253 65.225703 65.564557 65.893524 66.212366 66.520823 66.818690 67.105742 67.381804 67.646687 67.900250 68.142336 68.372834 68.591621 68.798613 68.993716 69.176870 69.348006 69.507086 69.654062 69.788909 69.911598 70.022116 70.120445 70.206583 70.280518 70.342252 70.391781 70.429108 70.454233 70.467158 70.467884 70.456413 70.432748 70.396889 70.348842 70.288607 70.216191 70.131598 70.034841 69.925926 69.804877 69.671707 69.526453 69.369139 69.199820 69.018535 68.825359 68.620354 68.403618 68.175237 67.935339 67.684037 67.421492 67.147846 66.863295 66.568013 66.262228 65.946151 65.620042 65.284143 64.938747 64.584124 64.220597 63.848460 63.468063 63.079719 62.683796 62.280623 61.870582 61.454010 61.031295 60.602777 60.168844 59.729833 59.286125 58.838047 58.385969 57.930205 57.471106 57.008968 56.544122 56.076839 55.607429 55.136137 54.663246 54.188974 53.713576 53.237243 52.760201 52.282614 51.804678 51.326529 50.848335 50.370205 49.892280 49.414644 48.937410 48.460639 47.984419 47.508789 47.033814 46.559513 46.085928 45.613061 45.140935 44.669535 44.198868 43.728904 43.259633 42.791015 42.323027 41.855619 41.388754 40.922376 40.456438 39.990879 39.525645 39.060669 38.595892 38.131246 37.666667