<?xml version="1.0"?>
<VTKFile type="ImageData" version="0.1" byte_order="LittleEndian">
  <ImageData WholeExtent="0 180 0 180 0 0" Origin="0.0 0.0 0.0" Spacing="0.05 0.05 1">
    <Piece Extent="0 180 0 180 0 0">
      <PointData Scalars="Temperature">
        <DataArray type="Float32" Name="Temperature" format="ascii">
32.000000 32.000000 32.000000 32.000000 32.000000 32.000000 32.000000 32.000000 32.000000 32.000000 32.000000 32.000000 32.000000 32.000000 32.000000 32.000000 32.000000 32.000000 32.000000 32.000000 32.000000 32.000000 32.000000 32.000000 32.000000 32.000000 32.000000 32.000000 32.000000 32.000000 32.000000 32.000000 32.000000 32.000000 32.000000 32.000000 32.000000 32.000000 32.000000 32.000000 32.000000 32.000000 32.000000 32.000000 32.000000 32.000000 32.000000 32.000000 32.000000 32.000000 32.000000 32.000000 32.000000 32.000000 32.000000 32.000000 32.000000 32.000000 32.000000 32.000000 32.000000 32.000000 32.000000 32.000000 32.000000 32.000000 32.000000 32.000000 32.000000 32.000000 32.000000 32.000000 32.000000 32.000000 32.000000 32.000000 32.000000 32.000000 32.000000 32.000000 32.000000 32.000000 32.000000 32.000000 32.000000 32.000000 32.000000 32.000000 32.000000 32.000000 32.000000 32.000000 32.000000 32.000000 32.000000 32.000000 32.000000 32.000000 32.000000 32.000000 32.000000 32.000000 32.000000 32.000000 32.000000 32.000000 32.000000 32.000000 32.000000 32.000000 32.000000 32.000000 32.000000 32.000000 32.000000 32.000000 32.000000 32.000000 32.000000 32.000000 32.000000 32.000000 32.000000 32.000000 32.000000 32.000000 32.000000 32.000000 32.000000 32.000000 32.000000 32.000000 32.000000 32.000000 32.000000 32.000000 32.000000 32.000000 32.000000 32.000000 32.000000 32.000000 32.000000 32.000000 32.000000 32.000000 32.000000 32.000000 32.000000 32.000000 32.000000 32.000000 32.000000 32.000000 32.000000 32.000000 32.000000 32.000000 32.000000 32.000000 32.000000 32.000000 32.000000 32.000000 32.000000 32.000000 32.000000 32.000000 32.000000 32.000000 32.000000 32.000000 32.000000 32.000000 32.000000 32.000000 32.000000 32.000000 32.000000 32.000000 32.000000
32.377778 32.407488 32.437204 32.466931 32.496672 32.526435 32.556222 32.586040 32.615891 32.645781 32.675713 32.705692 32.735718 32.765796 32.795926 32.826113 32.856355 32.886654 32.917009 32.947421 32.977886 33.008405 33.038971 33.069585 33.100238 33.130930 33.161649 33.192393 33.223150 33.253916 33.284677 33.315426 33.346148 33.376834 33.407468 33.438039 33.468528 33.498924 33.529205 33.559359 33.589362 33.619202 33.648852 33.678299 33.707516 33.736487 33.765185 33.793594 33.821686 33.849443 33.876838 33.903853 33.930461 33.956644 33.982375 34.007635 34.032400 34.056652 34.080366 34.103526 34.126108 34.148097 34.169471 34.190217 34.210313 34.229748 34.248503 34.266567 34.283925 34.300566 34.316476 34.331647 34.346068 34.359731 34.372626 34.384748 34.396088 34.406643 34.416404 34.425369 34.433532 34.440891 34.447443 34.453184 34.458112 34.462227 34.465525 34.468007 34.469671 34.470517 34.470544 34.469753 34.468145 34.465719 34.462477 34.458420 34.453551 34.447869 34.441380 34.434084 34.425987 34.417090 34.407399 34.396918 34.385654 34.373611 34.360798 34.347221 34.332891 34.317813 34.302001 34.285462 34.268212 34.250260 34.231622 34.212310 34.192342 34.171731 34.150497 34.128654 34.106225 34.083224 34.059677 34.035598 34.011014 33.985941 33.960407 33.934428 33.908032 33.881237 33.854071 33.826552 33.798707 33.770554 33.742121 33.713425 33.684493 33.655341 33.625996 33.596471 33.566793 33.536975 33.507041 33.477003 33.446883 33.416691 33.386449 33.356166 33.325858 33.295535 33.265212 33.234896 33.204600 33.174329 33.144095 33.113901 33.083758 33.053665 33.023632 32.993659 32.963751 32.933908 32.904135 32.874427 32.844790 32.815219 32.785715 32.756274 32.726897 32.697577 32.668315 32.639104 32.609941 32.580822 32.551742 32.522695 32.493677 32.464682 32.435704 32.406738 32.377778
32.755556 32.814980 32.874415 32.933870 32.993357 33.052884 33.112463 33.172101 33.231809 33.291592 33.351462 33.411421 33.471480 33.531640 33.591909 33.652286 33.712779 33.773382 33.834102 33.894931 33.955872 34.016916 34.078062 34.139296 34.200617 34.262008 34.323462 34.384960 34.446492 34.508034 34.569575 34.631084 34.692549 34.753934 34.815224 34.876380 34.937382 34.998189 35.058776 35.119100 35.179134 35.238830 35.298158 35.357069 35.415531 35.473492 35.530917 35.587753 35.643965 35.699498 35.754317 35.808367 35.861610 35.913994 35.965483 36.016022 36.065578 36.114099 36.161551 36.207886 36.253073 36.297066 36.339835 36.381338 36.421550 36.460431 36.497958 36.534097 36.568826 36.602117 36.633950 36.664300 36.693152 36.720484 36.746283 36.770531 36.793219 36.814331 36.833859 36.851791 36.868122 36.882843 36.895949 36.907432 36.917292 36.925521 36.932120 36.937083 36.940412 36.942104 36.942159 36.940577 36.937359 36.932507 36.926022 36.917907 36.908166 36.896802 36.883820 36.869227 36.853027 36.835230 36.815843 36.794877 36.772342 36.748252 36.722617 36.695458 36.666785 36.636623 36.604986 36.571901 36.537386 36.501472 36.464179 36.425543 36.385588 36.344353 36.301864 36.258164 36.213282 36.167266 36.120146 36.071972 36.022778 35.972615 35.921518 35.869542 35.816723 35.763114 35.708754 35.653696 35.597978 35.541654 35.484759 35.427349 35.369457 35.311135 35.252416 35.193350 35.133967 35.074315 35.014421 34.954330 34.894066 34.833670 34.773163 34.712583 34.651947 34.591290 34.530625 34.469982 34.409372 34.348822 34.288338 34.227942 34.167640 34.107448 34.047369 33.987417 33.927590 33.867899 33.808341 33.748923 33.689639 33.630493 33.571477 33.512593 33.453831 33.395190 33.336659 33.278235 33.219905 33.161664 33.103500 33.045404 32.987364 32.929372 32.871413 32.813479 32.755556
33.133333 33.222477 33.311637 33.400828 33.490065 33.579366 33.668741 33.758208 33.847778 33.937465 34.027278 34.117231 34.207328 34.297584 34.387999 34.478583 34.569334 34.660261 34.751355 34.842623 34.934052 35.025645 35.117383 35.209266 35.301270 35.393390 35.485597 35.577881 35.670208 35.762563 35.854905 35.947215 36.039446 36.131575 36.223547 36.315334 36.406878 36.498145 36.589070 36.679616 36.769713 36.859319 36.948361 37.036792 37.124535 37.211541 37.297731 37.383052 37.467422 37.550789 37.633069 37.714209 37.794127 37.872767 37.950049 38.025920 38.100301 38.173141 38.244365 38.313923 38.381745 38.447785 38.511976 38.574278 38.634629 38.692992 38.749313 38.803557 38.855677 38.905645 38.953416 38.998968 39.042264 39.083284 39.121998 39.158388 39.192431 39.224113 39.253414 39.280324 39.304827 39.326916 39.346579 39.363812 39.378603 39.390952 39.400851 39.408299 39.413293 39.415831 39.415913 39.413540 39.408712 39.401432 39.391702 39.379526 39.364910 39.347859 39.328381 39.306482 39.282176 39.255469 39.226379 39.194916 39.161102 39.124948 39.086482 39.045720 39.002694 38.957423 38.909946 38.860286 38.808488 38.754580 38.698612 38.640616 38.580650 38.518750 38.454978 38.389377 38.322014 38.252934 38.182209 38.109889 38.036050 37.960743 37.884049 37.806021 37.726740 37.646261 37.564668 37.482015 37.398385 37.313832 37.228439 37.142258 37.055369 36.967822 36.879694 36.791033 36.701913 36.612375 36.522490 36.432297 36.341860 36.251212 36.160414 36.069494 35.978506 35.887474 35.796445 35.705439 35.614497 35.523632 35.432881 35.342253 35.251778 35.161459 35.071321 34.981365 34.891609 34.802048 34.712697 34.623548 34.534610 34.445872 34.357339 34.268996 34.180845 34.092869 34.005066 33.917417 33.829915 33.742544 33.655291 33.568138 33.481073 33.394076 33.307133 33.220224 33.133333
33.511111 33.629983 33.748877 33.867812 33.986810 34.105891 34.225076 34.344380 34.463826 34.583424 34.703198 34.823153 34.943310 35.063671 35.184255 35.305057 35.426094 35.547357 35.668856 35.790578 35.912529 36.034689 36.157058 36.279610 36.402340 36.525214 36.648221 36.771320 36.894494 37.017693 37.140895 37.264040 37.387100 37.510009 37.632732 37.755192 37.877350 37.999122 38.120461 38.241277 38.361517 38.481085 38.599921 38.717926 38.835035 38.951143 39.066182 39.180045 39.292659 39.403917 39.513744 39.622032 39.728706 39.833658 39.936815 40.038072 40.137356 40.234566 40.329635 40.422463 40.512988 40.601119 40.686796 40.769934 40.850482 40.928362 41.003526 41.075906 41.145461 41.212130 41.275878 41.336653 41.394425 41.449150 41.500804 41.549350 41.594770 41.637032 41.676123 41.712018 41.744706 41.774169 41.800400 41.823383 41.843115 41.859584 41.872789 41.882722 41.889383 41.892768 41.892878 41.889712 41.883272 41.873562 41.860583 41.844344 41.824847 41.802104 41.776120 41.746911 41.714484 41.678861 41.640051 41.598081 41.552964 41.504735 41.453410 41.399029 41.341616 41.281217 41.217861 41.151602 41.082476 41.010544 40.935849 40.858460 40.778424 40.695821 40.610704 40.523159 40.433244 40.341053 40.246650 40.150134 40.051571 39.951068 39.848694 39.744558 39.638732 39.531327 39.422415 39.312110 39.200482 39.087644 38.973666 38.858658 38.742688 38.625862 38.508244 38.389936 38.270998 38.151526 38.031575 37.911234 37.790552 37.669611 37.548454 37.427157 37.305754 37.184313 37.062862 36.941462 36.820133 36.698928 36.577862 36.456978 36.336286 36.215820 36.095585 35.975608 35.855886 35.736442 35.617266 35.498375 35.379756 35.261416 35.143341 35.025532 34.907970 34.790653 34.673558 34.556679 34.439991 34.323482 34.207128 34.090913 33.974812 33.858805 33.742867 33.626977 33.511111
33.888889 34.037501 34.186139 34.334831 34.483601 34.632478 34.781481 34.930641 35.079972 35.229504 35.379249 35.529231 35.679459 35.829955 35.980720 36.131775 36.283113 36.434750 36.586673 36.738892 36.891387 37.044163 37.197188 37.350464 37.503950 37.657638 37.811480 37.965460 38.119520 38.273637 38.427741 38.581802 38.735740 38.889517 39.043042 39.196269 39.349098 39.501474 39.653289 39.804479 39.954929 40.104566 40.253269 40.400958 40.547507 40.692830 40.836795 40.979313 41.120249 41.259511 41.396963 41.532510 41.666017 41.797392 41.926498 42.053246 42.177504 42.299185 42.418164 42.534357 42.647647 42.757956 42.865173 42.969229 43.070022 43.167490 43.261541 43.352120 43.439146 43.522572 43.602326 43.678371 43.750643 43.819112 43.883726 43.944460 44.001271 44.054139 44.103031 44.147931 44.188812 44.225665 44.258468 44.287214 44.311888 44.332486 44.348998 44.361421 44.369750 44.373984 44.374120 44.370161 44.362108 44.349963 44.333733 44.313422 44.289041 44.260594 44.228099 44.191564 44.151010 44.106448 44.057908 44.005404 43.948973 43.888633 43.824431 43.756391 43.684567 43.608992 43.529727 43.446813 43.360324 43.270304 43.176840 43.079984 42.979832 42.876445 42.769928 42.660350 42.547824 42.432427 42.314279 42.193464 42.070110 41.944303 41.816177 41.685821 41.553375 41.418929 41.282624 41.144550 41.004849 40.863610 40.720972 40.577023 40.431899 40.285682 40.138503 39.990441 39.841619 39.692109 39.542029 39.391441 39.240456 39.089130 38.937561 38.785799 38.633933 38.482002 38.330087 38.178218 38.026466 37.874852 37.723438 37.572236 37.421299 37.270630 37.120273 36.970225 36.820518 36.671146 36.522129 36.373456 36.225142 36.077166 35.929537 35.782232 35.635250 35.488566 35.342172 35.196040 35.050158 34.904494 34.759031 34.613738 34.468592 34.323562 34.178622 34.033740 33.888889
34.266667 34.445032 34.623430 34.801892 34.980451 35.159135 35.337979 35.517005 35.696247 35.875724 36.055469 36.235492 36.415824 36.596470 36.777456 36.958780 37.140464 37.322496 37.504893 37.687635 37.870731 38.054151 38.237899 38.421932 38.606245 38.790787 38.975544 39.160451 39.345485 39.530570 39.715673 39.900707 40.085627 40.270335 40.454776 40.638838 40.822459 41.005515 41.187932 41.369578 41.550369 41.730163 41.908868 42.086334 42.262462 42.437095 42.610128 42.781399 42.950799 43.118163 43.283381 43.446286 43.606766 43.764656 43.919847 44.072177 44.221538 44.367777 44.510789 44.650427 44.786595 44.919155 45.048018 45.173056 45.294190 45.411303 45.524325 45.633152 45.737723 45.837946 45.933771 46.025118 46.111946 46.194185 46.271804 46.344746 46.412985 46.476474 46.535195 46.589111 46.638207 46.682456 46.721848 46.756362 46.785991 46.810720 46.830547 46.845461 46.855461 46.860543 46.860707 46.855953 46.846283 46.831702 46.812214 46.787828 46.758550 46.724396 46.685373 46.641504 46.592799 46.539289 46.480989 46.417936 46.350152 46.277684 46.200558 46.118834 46.032544 45.941759 45.846522 45.746913 45.642984 45.534829 45.422510 45.306132 45.185766 45.061531 44.933507 44.801825 44.666572 44.527889 44.385874 44.240676 44.092398 43.941197 43.787181 43.630514 43.471306 43.309725 43.145881 42.979944 42.812024 42.642289 42.470848 42.297865 42.123445 41.947747 41.770870 41.592966 41.414128 41.234499 41.054162 40.873253 40.691845 40.510063 40.327970 40.145680 39.963246 39.780769 39.598292 39.415905 39.233639 39.051574 38.869730 38.688174 38.506917 38.326014 38.145468 37.965323 37.785572 37.606248 37.427339 37.248866 37.070810 36.893183 36.715960 36.539146 36.362710 36.186647 36.010925 35.835531 35.660429 35.485601 35.311008 35.136628 34.962420 34.788357 34.614400 34.440515 34.266667
34.644444 34.852580 35.060754 35.269004 35.477366 35.685881 35.894578 36.103497 36.312664 36.522118 36.731877 36.941978 37.152430 37.363269 37.574496 37.786139 37.998191 38.210675 38.423573 38.636902 38.850631 39.064769 39.279275 39.494147 39.709332 39.924819 40.140540 40.356474 40.572539 40.788704 41.004871 41.220998 41.436973 41.652741 41.868178 42.083216 42.297716 42.511599 42.724714 42.936971 43.148206 43.358317 43.567133 43.774542 43.980362 44.184475 44.386691 44.586887 44.784869 44.980508 45.173609 45.364041 45.551609 45.736182 45.917569 46.095642 46.270213 46.441161 46.608306 46.771532 46.930671 47.085615 47.236206 47.382347 47.523895 47.660761 47.792817 47.919988 48.042157 48.159261 48.271200 48.377921 48.479337 48.575407 48.666057 48.751255 48.830942 48.905091 48.973656 49.036618 49.093940 49.145608 49.191595 49.231893 49.266480 49.295352 49.318495 49.335906 49.347579 49.353511 49.353702 49.348151 49.336863 49.319840 49.297091 49.268619 49.234440 49.194561 49.149003 49.097777 49.040912 48.978423 48.910348 48.836708 48.757551 48.672904 48.582829 48.487359 48.386570 48.280504 48.169250 48.052862 47.931442 47.805055 47.673818 47.537808 47.397157 47.251952 47.102340 46.948419 46.790348 46.628236 46.462254 46.292518 46.119211 45.942455 45.762439 45.579293 45.393209 45.204320 45.012822 44.818848 44.622593 44.424189 44.223830 44.021641 43.817814 43.612467 43.405785 43.197878 42.988921 42.779017 42.568330 42.356951 42.145033 41.932656 41.719959 41.507010 41.293936 41.080791 40.867689 40.654672 40.441838 40.229218 40.016896 39.804892 39.593275 39.382054 39.171286 38.960967 38.751143 38.541802 38.332976 38.124644 37.916826 37.709497 37.502665 37.296297 37.090393 36.884914 36.679851 36.475163 36.270831 36.066811 35.863079 35.659588 35.456309 35.253194 35.050207 34.847304 34.644444
35.022222 35.260146 35.498116 35.736171 35.974361 36.212721 36.451299 36.690127 36.929252 37.168699 37.408511 37.648707 37.889327 38.130378 38.371898 38.613884 38.856366 39.099330 39.342800 39.586748 39.831190 40.076085 40.321439 40.567197 40.813354 41.059840 41.306637 41.553661 41.800881 42.048195 42.295561 42.542861 42.790037 43.036955 43.283545 43.529656 43.775203 44.020021 44.264011 44.506993 44.748857 44.989410 45.228529 45.466010 45.701720 45.935446 46.167048 46.396305 46.623072 46.847123 47.068309 47.286404 47.501258 47.712648 47.920423 48.124367 48.324333 48.520111 48.711563 48.898490 49.080761 49.258190 49.430658 49.597993 49.760088 49.916788 50.067998 50.213579 50.353450 50.487491 50.615634 50.737773 50.853854 50.963788 51.067532 51.165012 51.256197 51.341025 51.419474 51.491495 51.557072 51.616168 51.668773 51.714860 51.754421 51.787438 51.813907 51.833818 51.847167 51.853950 51.854167 51.847820 51.834909 51.815441 51.789420 51.756859 51.717764 51.672154 51.620039 51.561447 51.496391 51.424909 51.347020 51.262772 51.172192 51.075340 50.972252 50.863003 50.747638 50.626247 50.498886 50.365663 50.226646 50.081960 49.931686 49.775965 49.614893 49.448628 49.277278 49.101017 48.919965 48.734312 48.544188 48.349796 48.151274 47.948835 47.742626 47.532867 47.319709 47.103377 46.884022 46.661873 46.437081 46.209871 45.980392 45.748865 45.515432 45.280308 45.043626 44.805594 44.566333 44.326039 44.084823 43.842868 43.600271 43.357201 43.113742 42.870047 42.626186 42.382295 42.138431 41.894715 41.651188 41.407953 41.165040 40.922536 40.680457 40.438874 40.197790 39.957263 39.717284 39.477895 39.239079 39.000863 38.763222 38.526170 38.289673 38.053734 37.818315 37.583405 37.348962 37.114967 36.881371 36.648148 36.415247 36.182635 35.950259 35.718080 35.486045 35.254109 35.022222
35.400000 35.667734 35.935517 36.203403 36.471436 36.739671 37.008147 37.276919 37.546018 37.815498 38.085382 38.355721 38.626528 38.897848 39.169686 39.442079 39.715019 39.988538 40.262613 40.537266 40.812461 41.088211 41.364461 41.641213 41.918398 42.196004 42.473943 42.752190 43.030640 43.309251 43.587901 43.866534 44.145008 44.423249 44.701099 44.978469 45.255181 45.531131 45.806124 46.080041 46.352671 46.623882 46.893449 47.161226 47.426978 47.690548 47.951691 48.210242 48.465951 48.718647 48.968076 49.214066 49.456362 49.694793 49.929108 50.159138 50.384642 50.605457 50.821351 51.032171 51.237698 51.437791 51.632247 51.820938 52.003679 52.180355 52.350802 52.514921 52.672566 52.823653 52.968056 53.105706 53.236496 53.360373 53.477245 53.587071 53.689778 53.785335 53.873684 53.954804 54.028647 54.095201 54.154430 54.206327 54.250865 54.288042 54.317839 54.340256 54.355283 54.362919 54.363163 54.356015 54.341480 54.319559 54.290265 54.253600 54.209584 54.158223 54.099543 54.033556 53.960297 53.879783 53.792062 53.697156 53.595128 53.486008 53.369873 53.246766 53.116780 52.979969 52.836445 52.686277 52.529594 52.366480 52.197085 52.021508 51.839918 51.652430 51.459231 51.260451 51.056296 50.846908 50.632508 50.413251 50.189372 49.961033 49.728480 49.491883 49.251495 49.007488 48.760120 48.509563 48.256075 47.999826 47.741072 47.479975 47.216786 46.951659 46.684835 46.416458 46.146757 45.875864 45.603993 45.331262 45.057870 44.783920 44.509593 44.234977 43.960234 43.685436 43.410727 43.136162 42.861868 42.587883 42.314315 42.041189 41.768593 41.496537 41.225094 40.954259 40.684087 40.414563 40.145726 39.877551 39.610060 39.343218 39.077036 38.811470 38.546518 38.282129 38.018290 37.754947 37.492074 37.229613 36.967532 36.705770 36.444285 36.183017 35.921919 35.660931 35.400000
35.777778 36.075342 36.372965 36.670699 36.968605 37.266732 37.565141 37.863873 38.162989 38.462520 38.762526 39.063027 39.364079 39.665692 39.967914 40.270743 40.574219 40.878326 41.183095 41.488495 41.794544 42.101196 42.408457 42.716262 43.024603 43.333396 43.642620 43.952169 44.262006 44.572005 44.882112 45.192180 45.502138 45.811818 46.121130 46.429886 46.737979 47.045200 47.351424 47.656426 47.960063 48.262092 48.562357 48.860599 49.156649 49.450237 49.741183 50.029208 50.314122 50.595644 50.873579 51.147642 51.417638 51.683284 51.944389 52.200676 52.451957 52.697967 52.938529 53.173389 53.402381 53.625271 53.841907 54.052072 54.255630 54.452387 54.642224 54.824967 55.000517 55.168721 55.329497 55.482715 55.628310 55.766171 55.896248 56.018452 56.132744 56.239052 56.337350 56.427582 56.509728 56.583748 56.649629 56.707340 56.756875 56.798213 56.831350 56.856274 56.872984 56.881473 56.881743 56.873795 56.857629 56.833255 56.800675 56.759904 56.710948 56.653830 56.588558 56.515166 56.433667 56.344106 56.246504 56.140918 56.027378 55.905958 55.776699 55.639691 55.494988 55.342702 55.182900 55.015716 54.841233 54.659606 54.470936 54.275401 54.073119 53.864290 53.649050 53.427619 53.200149 52.966880 52.727978 52.483699 52.234221 51.979814 51.720667 51.457058 51.189180 50.917321 50.641675 50.362531 50.080082 49.794617 49.506323 49.215484 48.922280 48.626983 48.329765 48.030886 47.730502 47.428862 47.126105 46.822462 46.518057 46.213102 45.907703 45.602052 45.296238 44.990432 44.684703 44.379202 44.073981 43.769170 43.464803 43.160989 42.857746 42.555163 42.253243 41.952054 41.651586 41.351890 41.052942 40.754775 40.457355 40.160700 39.864764 39.569550 39.275006 38.981122 38.687838 38.395132 38.102940 37.811229 37.519932 37.229006 36.938383 36.648014 36.357829 36.067772 35.777778
36.155556 36.482975 36.810457 37.138068 37.465867 37.793921 38.122280 38.451014 38.780163 39.109795 39.439941 39.770664 40.101984 40.433957 40.766591 41.099935 41.433980 41.768767 42.104270 42.440520 42.777473 43.115145 43.453475 43.792465 44.132032 44.472162 44.812751 45.153768 45.495085 45.836654 46.178325 46.520029 46.861592 47.202926 47.543835 47.884210 48.223832 48.562571 48.900189 49.236537 49.571354 49.904475 50.235622 50.564612 50.891154 51.215051 51.535998 51.853790 52.168114 52.478755 52.785399 53.087826 53.385722 53.678869 53.966957 54.249773 54.527017 54.798482 55.063883 55.323027 55.575643 55.821554 56.060510 56.292351 56.516851 56.733868 56.943200 57.144725 57.338267 57.523724 57.700943 57.869843 58.030295 58.182235 58.325558 58.460214 58.586119 58.703238 58.811503 58.910893 59.001354 59.082873 59.155411 59.218960 59.273495 59.319009 59.355487 59.382927 59.401319 59.410665 59.410961 59.402208 59.384412 59.357575 59.321708 59.276814 59.222915 59.160015 59.088145 59.007314 58.917563 58.818910 58.711407 58.595081 58.470002 58.336206 58.193781 58.042778 57.883305 57.715428 57.539280 57.354942 57.162573 56.962273 56.754225 56.538549 56.315454 56.085080 55.847659 55.603351 55.352410 55.095014 54.831438 54.561875 54.286616 54.005867 53.719932 53.429024 53.133459 52.833454 52.529329 52.221301 51.909691 51.594713 51.276684 50.955809 50.632398 50.306647 49.978852 49.649195 49.317957 48.985306 48.651503 48.316698 47.981134 47.644939 47.308336 46.971433 46.634429 46.297413 45.960560 45.623938 45.287700 44.951894 44.616650 44.281996 43.948040 43.614794 43.282341 42.950678 42.619869 42.289894 41.960798 41.632547 41.305169 40.978618 40.652905 40.327974 40.003820 39.680381 39.357636 39.035518 38.713993 38.392989 38.072463 37.752340 37.432566 37.113067 36.793780 36.474632 36.155556
36.533333 36.890631 37.248000 37.605509 37.963232 38.321231 38.679581 39.038334 39.397565 39.757317 40.117661 40.478627 40.840282 41.202642 41.565767 41.929657 42.294363 42.659868 43.026212 43.393360 43.761337 44.130088 44.499624 44.869868 45.240814 45.612362 45.984489 46.357068 46.730057 47.103306 47.476749 47.850213 48.223610 48.596739 48.969492 49.341642 49.713057 50.083487 50.452779 50.820659 51.186952 51.551363 51.913700 52.273649 52.631000 52.985424 53.336698 53.684481 54.028540 54.368528 54.704205 55.035223 55.361338 55.682206 55.997588 56.307145 56.610646 56.907766 57.198286 57.481896 57.758394 58.027492 58.289004 58.542669 58.788321 59.025724 59.254736 59.475149 59.686843 59.889638 60.083435 60.268084 60.443506 60.609575 60.766233 60.913377 61.050966 61.178919 61.297207 61.405768 61.504585 61.593611 61.672836 61.742227 61.801780 61.851472 61.891303 61.921258 61.941339 61.951540 61.951861 61.942305 61.922872 61.893571 61.854404 61.805387 61.746523 61.677839 61.599339 61.511062 61.413017 61.305257 61.187798 61.060709 60.924017 60.777809 60.622128 60.457079 60.282723 60.099189 59.906557 59.704983 59.494565 59.275488 59.047874 58.811933 58.567811 58.315746 58.055906 57.788557 57.513884 57.232180 56.943650 56.648605 56.347267 56.039964 55.726930 55.408506 55.084931 54.756557 54.423625 54.086489 53.745389 53.400676 53.052585 52.701458 52.347522 51.991107 51.632425 51.271793 50.909404 50.545557 50.180426 49.814289 49.447299 49.079710 48.711654 48.343360 47.974936 47.606587 47.238398 46.870548 46.503100 46.136207 45.769911 45.404339 45.039514 44.675538 44.312414 43.950223 43.588949 43.228651 42.869299 42.510929 42.153498 41.797025 41.441453 41.086783 40.732950 40.379938 40.027674 39.676129 39.325223 38.974914 38.625120 38.275785 37.926828 37.578184 37.229769 36.881513 36.533333
36.911111 37.298312 37.685590 38.073027 38.460695 38.848676 39.237034 39.625853 40.015185 40.405112 40.795675 41.186950 41.578965 41.971789 42.365434 42.759962 43.155366 43.551695 43.948925 44.347091 44.746148 45.146116 45.546926 45.948581 46.350987 46.754130 47.157889 47.562227 47.966998 48.372144 48.777488 49.182950 49.588325 49.993508 50.398267 50.802470 51.205860 51.608278 52.009441 52.409168 52.807150 53.203183 53.596937 53.988188 54.376585 54.761889 55.143734 55.521867 55.895912 56.265605 56.630567 56.990530 57.345112 57.694048 58.036963 58.373595 58.703582 59.026673 59.342523 59.650897 59.951469 60.244025 60.528266 60.803998 61.070951 61.328957 61.577776 61.817264 62.047213 62.267505 62.477963 62.678492 62.868945 63.049250 63.219288 63.379006 63.528308 63.667161 63.795489 63.913272 64.020453 64.117022 64.202937 64.278194 64.342766 64.396652 64.439834 64.472314 64.494082 64.505141 64.505487 64.495123 64.474054 64.442280 64.399814 64.346656 64.282828 64.208333 64.123201 64.027439 63.921093 63.804173 63.676742 63.538821 63.390488 63.231781 63.062800 62.883596 62.694296 62.494971 62.285775 62.066802 61.838234 61.600190 61.352885 61.096461 60.831163 60.557162 60.274732 59.984068 59.685472 59.379162 59.065467 58.744622 58.416978 58.082786 57.742415 57.396124 57.044295 56.687194 56.325207 55.958601 55.587763 55.212955 54.834557 54.452824 54.068126 53.680703 53.290910 52.898969 52.505218 52.109858 51.713204 51.315435 50.916841 50.517577 50.117907 49.717961 49.317974 48.918052 48.518403 48.119105 47.720339 47.322160 46.924720 46.528051 46.132279 45.737415 45.343556 44.950695 44.558904 44.168159 43.778509 43.389912 43.002396 42.615907 42.230451 41.845962 41.462430 41.079778 40.697980 40.316952 39.936651 39.556991 39.177915 38.799332 38.421178 38.043359 37.665801 37.288412 36.911111
37.288889 37.706017 38.123232 38.540617 38.958264 39.376246 39.794655 40.213557 40.633042 41.053163 41.474007 41.895614 42.318064 42.741380 43.165635 43.590834 44.017039 44.444236 44.872472 45.301710 45.731985 46.163235 46.595476 47.028621 47.462666 47.897497 48.333088 48.769296 49.206072 49.643242 50.080733 50.518340 50.955962 51.393365 51.830421 52.266865 52.702541 53.137154 53.570521 54.002320 54.432342 54.860238 55.285775 55.708583 56.128407 56.544857 56.957663 57.366419 57.770841 58.170517 58.565155 58.954338 59.337772 59.715045 60.085866 60.449831 60.806660 61.155965 61.497480 61.830840 62.155796 62.472011 62.779261 63.077236 63.365741 63.644499 63.913342 64.172029 64.420420 64.658308 64.885581 65.102066 65.307677 65.502273 65.685791 65.858119 66.019213 66.168988 66.307415 66.434430 66.550019 66.654134 66.746769 66.827892 66.897503 66.955580 67.002125 67.037127 67.060587 67.072503 67.072874 67.061703 67.038991 67.004746 66.958967 66.901671 66.832858 66.752552 66.660756 66.557507 66.442813 66.316725 66.179259 66.030485 65.870432 65.699190 65.516805 65.323393 65.119020 64.903830 64.677911 64.441442 64.194535 63.937403 63.670186 63.393130 63.106405 62.810293 62.504991 62.190813 61.867982 61.536845 61.197647 60.850761 60.496453 60.135116 59.767032 59.392609 59.012137 58.626037 58.234600 57.838250 57.437279 57.032104 56.623010 56.210406 55.794564 55.375879 54.954605 54.531118 54.105650 53.678556 53.250042 52.820438 52.389924 51.958801 51.527224 51.095462 50.663641 50.232002 49.800643 49.369772 48.939462 48.509890 48.081103 47.653248 47.226347 46.800519 46.375764 45.952172 45.529724 45.108483 44.688412 44.269549 43.851842 43.435307 43.019876 42.605546 42.192238 41.779929 41.368532 40.958006 40.548259 40.139234 39.730834 39.322991 38.915606 38.508599 38.101870 37.695333 37.288889
37.666667 38.113746 38.560920 39.008285 39.455928 39.903949 40.352427 40.801460 41.251115 41.701490 42.152636 42.604645 43.057554 43.511448 43.966343 44.422315 44.879361 45.337542 45.796833 46.257281 46.718835 47.181524 47.645271 48.110085 48.575859 49.042580 49.510112 49.978415 50.447322 50.916768 51.386552 51.856580 52.326618 52.796543 53.266087 53.735096 54.203271 54.670427 55.136233 55.600474 56.062790 56.522938 56.980531 57.435301 57.886837 58.334851 58.778912 59.218717 59.653819 60.083905 60.508522 60.927348 61.339934 61.745957 62.144973 62.536669 62.920616 63.296511 63.663947 64.022642 64.372215 64.712408 65.042871 65.363377 65.673609 65.973372 66.262386 66.540488 66.807439 67.063104 67.307283 67.539873 67.760709 67.969714 68.166758 68.351788 68.524702 68.685467 68.834008 68.970306 69.094306 69.206002 69.305356 69.392368 69.467013 69.529296 69.579200 69.616731 69.641881 69.654655 69.655051 69.643070 69.618717 69.581992 69.532905 69.471455 69.397660 69.311519 69.213061 69.102288 68.979242 68.843932 68.696419 68.536720 68.364919 68.181048 67.985215 67.777474 67.557962 67.326756 67.084025 66.829876 66.564513 66.288073 66.000798 65.702857 65.394530 65.076018 64.747640 64.409625 64.062330 63.706013 63.341060 62.967754 62.586508 62.197626 61.801541 61.398569 60.989159 60.573632 60.152446 59.725922 59.294517 58.858548 58.418464 57.974569 57.527301 57.076946 56.623922 56.168496 55.711061 55.251858 54.791254 54.329462 53.866820 53.403509 52.939837 52.475955 52.012134 51.548499 51.085286 50.622589 50.160612 49.699418 49.239179 48.779932 48.321816 47.864842 47.409120 46.954637 46.501474 46.049598 45.599061 45.149812 44.701879 44.255195 43.809763 43.365504 42.922401 42.480362 42.039350 41.599268 41.160061 40.721623 40.283889 39.846747 39.410119 38.973893 38.537980 38.102271 37.666667