# vtk DataFile Version 3.0
Steady-state temperature (Jacobi)
ASCII
DATASET STRUCTURED_POINTS
DIMENSIONS 181 181 1
ORIGIN 0.0 0.0 0.0
SPACING 0.05 0.05 1.0
POINT_DATA 32761
SCALARS Temperature float 1
LOOKUP_TABLE default
32.000000 32.000000 32.000000 32.000000 32.000000 32.000000 32.000000 32.000000
32.000000 32.000000 32.000000 32.000000 32.000000 32.000000 32.000000 32.000000
32.000000 32.000000 32.000000 32.000000 32.000000 32.000000 32.000000 32.000000
32.000000 32.000000 32.000000 32.000000 32.000000 32.000000 32.000000 32.000000
32.000000 32.000000 32.000000 32.000000 32.000000 32.000000 32.000000 32.000000
32.000000 32.000000 32.000000 32.000000 32.000000 32.000000 32.000000 32.000000
32.000000 32.000000 32.000000 32.000000 32.000000 32.000000 32.000000 32.000000
32.000000 32.000000 32.000000 32.000000 32.000000 32.000000 32.000000 32.000000
32.000000 32.000000 32.000000 32.000000 32.000000 32.000000 32.000000 32.000000
32.000000 32.000000 32.000000 32.000000 32.000000 32.000000 32.000000 32.000000
32.000000 32.000000 32.000000 32.000000 32.000000 32.000000 32.000000 32.000000
32.000000 32.000000 32.000000 32.000000 32.000000 32.000000 32.000000 32.000000
32.000000 32.000000 32.000000 32.000000 32.000000 32.000000 32.000000 32.000000
32.000000 32.000000 32.000000 32.000000 32.000000 32.000000 32.000000 32.000000
32.000000 32.000000 32.000000 32.000000 32.000000 32.000000 32.000000 32.000000
32.000000 32.000000 32.000000 32.000000 32.000000 32.000000 32.000000 32.000000
32.000000 32.000000 32.000000 32.000000 32.000000 32.000000 32.000000 32.000000
32.000000 32.000000 32.000000 32.000000 32.000000 32.000000 32.000000 32.000000
32.000000 32.000000 32.000000 32.000000 32.000000 32.000000 32.000000 32.000000
32.000000 32.000000 32.000000 32.000000 32.000000 32.000000 32.000000 32.000000
32.000000 32.000000 32.000000 32.000000 32.000000 32.000000 32.000000 32.000000
32.000000 32.000000 32.000000 32.000000 32.000000 32.000000 32.000000 32.000000
32.000000 32.000000 32.000000 32.000000 32.000000
32.377778 32.408202 32.438631 32.469068 32.499518 32.529986 32.560474 32.590987
32.621528 32.652101 32.682708 32.713353 32.744037 32.774763 32.805531 32.836343
32.867199 32.898100 32.929044 32.960031 32.991056 33.022121 33.053219 33.084348
33.115501 33.146675 33.177861 33.209055 33.240246 33.271427 33.302586 33.333716
33.364801 33.395834 33.426796 33.457678 33.488461 33.519134 33.549675 33.580072
33.610303 33.640353 33.670199 33.699825 33.729207 33.758327 33.787162 33.815692
33.843893 33.871747 33.899226 33.926314 33.952984 33.979218 34.004990 34.030283
34.055071 34.079338 34.103060 34.126221 34.148798 34.170776 34.192134 34.212858
34.232930 34.252337 34.271061 34.289091 34.306413 34.323017 34.338890 34.354023
34.368405 34.382030 34.394888 34.406973 34.418278 34.428799 34.438529 34.447465
34.455602 34.462937 34.469467 34.475191 34.480105 34.484208 34.487499 34.489977
34.491641 34.492491 34.492526 34.491746 34.490153 34.487746 34.484526 34.480496
34.475656 34.470008 34.463554 34.456298 34.448242 34.439390 34.429746 34.419315
34.408102 34.396111 34.383352 34.369830 34.355554 34.340532 34.324774 34.308290
34.291092 34.273190 34.254601 34.235334 34.215408 34.194836 34.173635 34.151821
34.129415 34.106431 34.082893 34.058818 34.034227 34.009141 33.983582 33.957570
33.931130 33.904280 33.877046 33.849448 33.821510 33.793252 33.764699 33.735869
33.706787 33.677471 33.647945 33.618224 33.588333 33.558285 33.528103 33.497801
33.467398 33.436907 33.406346 33.375726 33.345064 33.314368 33.283654 33.252929
33.222206 33.191491 33.160794 33.130120 33.099479 33.068872 33.038309 33.007789
32.977319 32.946899 32.916533 32.886220 32.855962 32.825758 32.795610 32.765513
32.735468 32.705471 32.675521 32.645615 32.615749 32.585919 32.556122 32.526353
32.496609 32.466884 32.437174 32.407473 32.377778
32.755556 32.816406 32.877266 32.938143 32.999046 33.059982 33.120962 33.181990
33.243076 33.304224 33.365443 33.426735 33.488109 33.549564 33.611106 33.672735
33.734455 33.796261 33.858157 33.920135 33.982197 34.044332 34.106539 34.168803
34.231123 34.293479 34.355866 34.418263 34.480660 34.543033 34.605368 34.667640
34.729830 34.791907 34.853852 34.915631 34.977219 35.038579 35.099686 35.160496
35.220982 35.281099 35.340817 35.400087 35.458876 35.517137 35.574832 35.631912
35.688341 35.744067 35.799053 35.853248 35.906613 35.959100 36.010669 36.061273
36.110874 36.159426 36.206893 36.253230 36.298405 36.342375 36.385111 36.426573
36.466734 36.505559 36.543023 36.579095 36.613753 36.646969 36.678726 36.708999
36.737774 36.765029 36.790753 36.814928 36.837545 36.858590 36.878055 36.895929
36.912207 36.926880 36.939943 36.951392 36.961222 36.969429 36.976013 36.980969
36.984297 36.985996 36.986066 36.984507 36.981319 36.976505 36.970065 36.962003
36.952321 36.941023 36.928113 36.913599 36.897483 36.879776 36.860483 36.839617
36.817183 36.793199 36.767672 36.740622 36.712060 36.682008 36.650481 36.617503
36.583094 36.547281 36.510086 36.471542 36.431672 36.390513 36.348092 36.304450
36.259616 36.213633 36.166534 36.118365 36.069160 36.018969 35.967826 35.915783
35.862876 35.809157 35.754664 35.699447 35.643545 35.587010 35.529878 35.472199
35.414010 35.355359 35.296281 35.236822 35.177015 35.116903 35.056516 34.995896
34.935068 34.874072 34.812930 34.751677 34.690334 34.628931 34.567486 34.506025
34.444563 34.383122 34.321714 34.260359 34.199063 34.137844 34.076705 34.015660
33.954710 33.893865 33.833124 33.772494 33.711971 33.651560 33.591256 33.531059
33.470964 33.410968 33.351064 33.291249 33.231514 33.171852 33.112256 33.052717
32.993225 32.933774 32.874351 32.814948 32.755556
33.133333 33.224615 33.315910 33.407231 33.498591 33.590003 33.681477 33.773028
33.864663 33.956395 34.048230 34.140180 34.232248 34.324444 34.416767 34.509226
34.601817 34.694545 34.787402 34.880391 34.973500 35.066727 35.160055 35.253480
35.346980 35.440546 35.534151 35.627781 35.721404 35.815002 35.908536 36.001985
36.095304 36.188466 36.281422 36.374139 36.466562 36.558655 36.650358 36.741630
36.832405 36.922639 37.012264 37.101229 37.189464 37.276916 37.363511 37.449194
37.533890 37.617541 37.700072 37.781426 37.861527 37.940317 38.017721 38.093685
38.168134 38.241017 38.312263 38.381820 38.449625 38.515628 38.579770 38.642007
38.702283 38.760559 38.816785 38.870926 38.922939 38.972793 39.020450 39.065886
39.109065 39.149969 39.188569 39.224849 39.258786 39.290367 39.319573 39.346395
39.370818 39.392835 39.412435 39.429613 39.444361 39.456676 39.466553 39.473989
39.478983 39.481532 39.481637 39.479297 39.474515 39.467291 39.457629 39.445531
39.431005 39.414053 39.394684 39.372904 39.348724 39.322152 39.293205 39.261890
39.228230 39.192235 39.153931 39.113334 39.070474 39.025370 38.978057 38.928561
38.876921 38.823167 38.767345 38.709489 38.649651 38.587868 38.524200 38.458687
38.391395 38.322368 38.251675 38.179365 38.105511 38.030165 37.953402 37.875276
37.795864 37.715223 37.633431 37.550543 37.466639 37.381773 37.296022 37.209443
37.122108 37.034072 36.945406 36.856160 36.766402 36.676179 36.585555 36.494571
36.403289 36.311745 36.219995 36.128070 36.036021 35.943875 35.851676 35.759446
35.667225 35.575030 35.482894 35.390830 35.298865 35.207008 35.115282 35.023690
34.932249 34.840960 34.749835 34.658872 34.568077 34.477445 34.386979 34.296671
34.206520 34.116515 34.026653 33.936921 33.847312 33.757813 33.668413 33.579098
33.489857 33.400674 33.311536 33.222427 33.133333
33.511111 33.632830 33.754567 33.876338 33.998163 34.120056 34.242035 34.364114
34.486309 34.608632 34.731097 34.853712 34.976492 35.099437 35.222561 35.345860
35.469345 35.593007 35.716852 35.840867 35.965052 36.089388 36.213872 36.338478
36.463197 36.587997 36.712862 36.837753 36.962649 37.087504 37.212289 37.336951
37.461456 37.585742 37.709769 37.833467 37.956791 38.079663 38.202032 38.323815
38.444953 38.565357 38.684964 38.803680 38.921438 39.038139 39.153713 39.268057
39.381099 39.492735 39.602891 39.711463 39.818375 39.923526 40.026841 40.128220
40.227590 40.324856 40.419949 40.512776 40.603273 40.691355 40.776961 40.860012
40.940455 41.018218 41.093253 41.165495 41.234904 41.301422 41.365014 41.425633
41.483247 41.537817 41.589318 41.637716 41.682992 41.725119 41.764082 41.799859
41.832439 41.861806 41.887951 41.910863 41.930535 41.946960 41.960134 41.970052
41.976712 41.980111 41.980251 41.977130 41.970751 41.961116 41.948228 41.932094
41.912716 41.890106 41.864268 41.835217 41.802961 41.767517 41.728898 41.687127
41.642218 41.594200 41.543093 41.488933 41.431744 41.371567 41.308434 41.242393
41.173481 41.101756 41.027259 40.950056 40.870195 40.787750 40.702774 40.615348
40.525532 40.433414 40.339057 40.242556 40.143979 40.043424 39.940963 39.836698
39.730703 39.623083 39.513912 39.403294 39.291306 39.178052 39.063604 38.948066
38.831509 38.714032 38.595702 38.476615 38.356834 38.236450 38.115519 37.994126
37.872324 37.750190 37.627770 37.505134 37.382322 37.259397 37.136392 37.013363
36.890335 36.767358 36.644451 36.521654 36.398982 36.276468 36.154119 36.031963
35.910001 35.788254 35.666719 35.545411 35.424321 35.303458 35.182811 35.062383
34.942161 34.822140 34.702306 34.582652 34.463158 34.343816 34.224603 34.105508
33.986509 33.867590 33.748730 33.629911 33.511111
33.888889 34.041054 34.193240 34.345472 34.497769 34.650154 34.802646 34.955267
35.108031 35.260960 35.414065 35.567365 35.720866 35.874585 36.028522 36.182690
36.337083 36.491712 36.646562 36.801640 36.956923 37.112411 37.268077 37.423912
37.579880 37.735967 37.892127 38.048339 38.204548 38.360725 38.516805 38.672753
38.828493 38.983981 39.139134 39.293899 39.448183 39.601925 39.755024 39.907413
40.058982 40.209655 40.359317 40.507887 40.655244 40.801299 40.945929 41.089041
41.230508 41.370235 41.508094 41.643989 41.777791 41.909405 42.038706 42.165599
42.289962 42.411706 42.530712 42.646897 42.760150 42.870391 42.977518 43.081459
43.182119 43.279436 43.373323 43.463725 43.550566 43.633799 43.713358 43.789203
43.861277 43.929549 43.993971 44.054516 44.111147 44.163844 44.212575 44.257325
44.298071 44.334801 44.367497 44.396152 44.420752 44.441293 44.457767 44.470170
44.478497 44.482748 44.482922 44.479020 44.471042 44.458992 44.442876 44.422697
44.398465 44.370186 44.337874 44.301538 44.261197 44.216863 44.168561 44.116308
44.060135 44.000065 43.936136 43.868375 43.796831 43.721538 43.642553 43.559916
43.473696 43.383940 43.290725 43.194107 43.094175 42.990991 42.884652 42.775230
42.662829 42.547529 42.429443 42.308654 42.185283 42.059419 41.931186 41.800678
41.668024 41.533317 41.396690 41.258236 41.118087 40.976336 40.833114 40.688512
40.542657 40.395635 40.247570 40.098543 39.948671 39.798029 39.646728 39.494835
39.342454 39.189644 39.036500 38.883074 38.729450 38.575674 38.421819 38.267923
38.114051 37.960231 37.806518 37.652935 37.499526 37.346305 37.193310 37.040547
36.888044 36.735801 36.583839 36.432152 36.280754 36.129632 35.978793 35.828222
35.677918 35.527862 35.378048 35.228455 35.079070 34.929870 34.780840 34.631953
34.483191 34.334527 34.185939 34.037401 33.888889
34.266667 34.449287 34.631935 34.814635 34.997418 35.180305 35.363324 35.546497
35.729849 35.913395 36.097162 36.281159 36.465409 36.649915 36.834696 37.019750
37.205090 37.390705 37.576604 37.762768 37.949199 38.135869 38.322772 38.509870
38.697151 38.884564 39.072091 39.259669 39.447270 39.634822 39.822284 40.009576
40.196646 40.383402 40.569783 40.755686 40.941039 41.125728 41.309675 41.492753
41.674874 41.855905 42.035750 42.214267 42.391352 42.566858 42.740676 42.912655
43.082680 43.250597 43.416292 43.579608 43.740431 43.898605 44.054018 44.206518
44.355995 44.502304 44.645340 44.784964 44.921079 45.053554 45.182300 45.307197
45.428163 45.545092 45.657910 45.766522 45.870865 45.970855 46.066439 46.157545
46.244129 46.326130 46.403513 46.476228 46.544247 46.607529 46.666054 46.719789
46.768720 46.812822 46.852083 46.886486 46.916025 46.940685 46.960464 46.975354
46.985352 46.990455 46.990663 46.985978 46.976399 46.961932 46.942581 46.918354
46.889256 46.855303 46.816502 46.772872 46.724426 46.671190 46.613179 46.550428
46.482959 46.410814 46.334020 46.252632 46.166684 46.076240 45.981343 45.882069
45.778470 45.670633 45.558620 45.442530 45.322436 45.198448 45.070647 44.939154
44.804061 44.665499 44.523566 44.378404 44.230116 44.078851 43.924719 43.767873
43.608427 43.446537 43.282319 43.115930 42.947485 42.777142 42.605012 42.431251
42.255966 42.079308 41.901379 41.722324 41.542238 41.361256 41.179467 40.996998
40.813927 40.630371 40.446400 40.262119 40.077588 39.892902 39.708111 39.523297
39.338500 39.153792 38.969203 38.784794 38.600584 38.416624 38.232925 38.049527
37.866432 37.683671 37.501238 37.319155 37.137409 36.956013 36.774949 36.594222
36.413810 36.233709 36.053892 35.874351 35.695057 35.515993 35.337129 35.158444
34.979905 34.801490 34.623164 34.444900 34.266667
34.644444 34.857532 35.070652 35.283836 35.497114 35.710520 35.924078 36.137822
36.351772 36.565961 36.780403 36.995126 37.210139 37.425468 37.641112 37.857092
38.073399 38.290049 38.507023 38.724330 38.941940 39.159854 39.378032 39.596465
39.815102 40.033924 40.252867 40.471902 40.690953 40.909979 41.128890 41.347634
41.566109 41.784250 42.001942 42.219109 42.435622 42.651394 42.866284 43.080195
43.292973 43.504512 43.714649 43.923267 44.130195 44.335311 44.538436 44.739440
44.938144 45.134412 45.328062 45.518959 45.706919 45.891809 46.073448 46.251705
46.426405 46.597422 46.764590 46.927787 47.086857 47.241690 47.392140 47.538105
47.679453 47.816094 47.947909 48.074819 48.196719 48.313542 48.425197 48.531629
48.632759 48.728543 48.818917 48.903844 48.983272 49.057175 49.125510 49.188257
49.245384 49.296877 49.342711 49.382877 49.417358 49.446147 49.469235 49.486616
49.498286 49.504243 49.504485 49.499014 49.487832 49.470943 49.448353 49.420068
49.386101 49.346459 49.301160 49.250216 49.193654 49.131487 49.063752 48.990468
48.911680 48.827416 48.737730 48.642659 48.542271 48.436610 48.325756 48.209766
48.088734 47.962727 47.831852 47.696188 47.555858 47.410951 47.261604 47.107916
46.950038 46.788079 46.622199 46.452518 46.279206 46.102389 45.922244 45.738904
45.552549 45.363316 45.171389 44.976903 44.780044 44.580945 44.379791 44.176710
43.971883 43.765432 43.557532 43.348298 43.137894 42.926429 42.714056 42.500873
42.287024 42.072594 41.857714 41.642460 41.426948 41.211244 40.995450 40.779617
40.563839 40.348153 40.132637 39.917320 39.702267 39.487495 39.273057 39.058959
38.845243 38.631907 38.418979 38.206449 37.994337 37.782625 37.571321 37.360402
37.149869 36.939692 36.729863 36.520350 36.311137 36.102188 35.893482 35.684983
35.476661 35.268480 35.060409 34.852408 34.644444
35.022222 35.265791 35.509397 35.753076 35.996867 36.240802 36.484920 36.729248
36.973823 37.218666 37.463814 37.709278 37.955092 38.201261 38.447812 38.694741
38.942068 39.189780 39.437889 39.686370 39.935229 40.184426 40.433958 40.683772
40.933854 41.184139 41.434598 41.685154 41.935765 42.186337 42.436817 42.687096
42.937107 43.186726 43.435871 43.684403 43.932229 44.179194 44.425191 44.670052
44.913659 45.155831 45.396438 45.635289 45.872245 46.107106 46.339725 46.569896
46.797466 47.022226 47.244020 47.462636 47.677920 47.889661 48.097707 48.301852
48.501947 48.697796 48.889256 49.076142 49.258319 49.435615 49.607906 49.775034
49.936887 50.093323 50.244244 50.389523 50.529075 50.662790 50.790598 50.912403
51.028148 51.137752 51.241172 51.338341 51.429223 51.513767 51.591947 51.663721
51.729070 51.787964 51.840391 51.886326 51.925763 51.958685 51.985089 52.004964
52.018309 52.025120 52.025396 52.019139 52.006350 51.987035 51.961199 51.928852
51.890000 51.844662 51.792846 51.734579 51.669872 51.598761 51.521264 51.437426
51.347274 51.250862 51.148227 51.039437 50.924537 50.803612 50.676719 50.543956
50.405394 50.261146 50.111298 49.955979 49.795287 49.629369 49.458336 49.282349
49.101532 48.916062 48.726071 48.531750 48.333240 48.130741 47.924403 47.714432
47.500983 47.284268 47.064442 46.841720 46.616256 46.388264 46.157897 45.925361
45.690806 45.454433 45.216380 44.976843 44.735949 44.493883 44.250763 44.006758
43.761975 43.516571 43.270639 43.024321 42.777696 42.530892 42.283973 42.037051
41.790179 41.543453 41.296910 41.050633 40.804647 40.559018 40.313760 40.068926
39.824518 39.580576 39.337091 39.094091 38.851560 38.609512 38.367923 38.126797
37.886104 37.645839 37.405966 37.166470 36.927313 36.688471 36.449903 36.211580
35.973459 35.735505 35.497673 35.259927 35.022222
35.400000 35.674064 35.948170 36.222362 36.496678 36.771164 37.045854 37.320791
37.596004 37.871534 38.147402 38.423646 38.700279 38.977335 39.254814 39.532745
39.811119 40.089956 40.369233 40.648963 40.929109 41.209674 41.490608 41.771899
42.053483 42.335337 42.617380 42.899574 43.181823 43.464073 43.746211 44.028169
44.309816 44.591069 44.871778 45.151845 45.431105 45.709443 45.986678 46.262682
46.537257 46.810263 47.081489 47.350781 47.617919 47.882739 48.145012 48.404565
48.661164 48.914633 49.164732 49.411283 49.654049 49.892852 50.127458 50.357693
50.583331 50.804204 51.020096 51.230850 51.436261 51.636185 51.830433 52.018873
52.201333 52.377698 52.547812 52.711576 52.868855 53.019562 53.163582 53.300845
53.431252 53.554748 53.671250 53.780717 53.883081 53.978311 54.066354 54.147189
54.220774 54.287095 54.346121 54.397843 54.442241 54.479307 54.509030 54.531405
54.546427 54.554093 54.554403 54.547357 54.532960 54.511213 54.482126 54.445705
54.401964 54.350911 54.292570 54.226951 54.154088 54.073997 53.986720 53.892282
53.790738 53.682121 53.566500 53.443919 53.314462 53.178187 53.035194 52.885556
52.729390 52.566784 52.397875 52.222766 52.041612 51.854531 51.661698 51.463246
51.259365 51.050202 50.835963 50.616807 50.392953 50.164569 49.931883 49.695071
49.454369 49.209956 48.962071 48.710894 48.456665 48.199562 47.939823 47.677618
47.413181 47.146675 46.878324 46.608281 46.336759 46.063899 45.789901 45.514892
45.239056 44.962508 44.685415 44.407874 44.130038 43.851987 43.573857 43.295713
43.017672 42.739785 42.462150 42.184804 41.907829 41.631247 41.355124 41.079468
40.804330 40.529708 40.255636 39.982101 39.709126 39.436686 39.164792 38.893413
38.622546 38.352155 38.082225 37.812715 37.543603 37.274842 37.006403 36.738236
36.470306 36.202562 35.934962 35.667457 35.400000
35.777778 36.082352 36.386974 36.691692 36.996555 37.301605 37.606892 37.912452
38.218333 38.524565 38.831192 39.138234 39.445732 39.753695 40.062158 40.371119
40.680604 40.990598 41.301119 41.612137 41.923660 42.235641 42.548076 42.860902
43.174101 43.487594 43.801346 44.115260 44.429287 44.743308 45.057259 45.371002
45.684454 45.997459 46.309915 46.621648 46.932539 47.242394 47.551077 47.858377
48.164142 48.468146 48.770221 49.070127 49.367686 49.662644 49.954814 50.243933
50.529806 50.812168 51.090817 51.365486 51.635976 51.902019 52.163420 52.419917
52.671321 52.917381 53.157915 53.392687 53.621528 53.844218 54.060600 54.270474
54.473702 54.670101 54.859550 55.041889 55.217016 55.384790 55.545126 55.697907
55.843062 55.980494 56.110150 56.231948 56.345849 56.451789 56.549739 56.639651
56.721504 56.795262 56.860911 56.918427 56.967801 57.009015 57.042066 57.066943
57.083645 57.092167 57.092510 57.084675 57.068663 57.044482 57.012135 56.971635
56.922988 56.866215 56.801323 56.728344 56.647290 56.558202 56.461101 56.356039
56.243047 56.122190 55.993512 55.857094 55.712992 55.561308 55.402111 55.235523
55.061631 54.880577 54.692466 54.497460 54.295683 54.087318 53.872506 53.651451
53.424309 53.191303 52.952605 52.708452 52.459029 52.204588 51.945320 51.681489
51.413292 51.140998 50.864807 50.584992 50.301752 50.015356 49.726000 49.433948
49.139390 48.842580 48.543698 48.242987 47.940613 47.636807 47.331719 47.025564
46.718477 46.410655 46.102215 45.793336 45.484117 45.174717 44.865219 44.555762
44.246410 43.937283 43.628428 43.319946 43.011868 42.704276 42.397186 42.090662
41.784706 41.479365 41.174629 40.870529 40.567044 40.264189 39.961935 39.660283
39.359195 39.058662 38.758637 38.459102 38.160004 37.861314 37.562979 37.264960
36.967201 36.669658 36.372274 36.074999 35.777778
36.155556 36.490656 36.825809 37.161073 37.496495 37.832133 38.168031 38.504244
38.840809 39.177779 39.515182 39.853067 40.191450 40.530376 40.869848 41.209903
41.550532 41.891760 42.233565 42.575961 42.918907 43.262407 43.606402 43.950880
44.295765 44.641028 44.986572 45.332354 45.678254 46.024211 46.370083 46.715791
47.061172 47.406125 47.750468 48.094078 48.436753 48.778351 49.118648 49.457485
49.794619 50.129873 50.462987 50.793769 51.121946 51.447312 51.769582 52.088541
52.403896 52.715425 53.022832 53.325892 53.624309 53.917859 54.206252 54.489268
54.766626 55.038116 55.303469 55.562487 55.814919 56.060583 56.299245 56.530742
56.754863 56.971464 57.180357 57.381418 57.574483 57.759448 57.936174 58.104576
58.264537 58.415991 58.558841 58.693039 58.818508 58.935211 59.043089 59.142118
59.232252 59.313476 59.385756 59.449085 59.503439 59.548814 59.585195 59.612581
59.630964 59.640344 59.640719 59.632092 59.614465 59.587842 59.552232 59.507640
59.454082 59.391566 59.320117 59.239746 59.150489 59.052363 58.945417 58.829676
58.705205 58.572040 58.430261 58.279920 58.121116 57.953917 57.778443 57.594780
57.403072 57.203422 56.996000 56.780929 56.558402 56.328563 56.091627 55.847759
55.597195 55.340118 55.076785 54.807391 54.532212 54.251455 53.965409 53.674290
53.378395 53.077947 52.773245 52.464515 52.152057 51.836093 51.516918 51.194748
50.869872 50.542495 50.212894 49.881260 49.547858 49.212863 48.876522 48.538993
48.200503 47.861193 47.521270 47.180854 46.840130 46.499200 46.158226 45.817290
45.476533 45.136016 44.795861 44.456109 44.116860 43.778140 43.440027 43.102530
42.765710 42.429560 42.094123 41.759380 41.425356 41.092020 40.759382 40.427403
40.096077 39.765356 39.435223 39.105624 38.776530 38.447881 38.119640 37.791745
37.464149 37.136789 36.809611 36.482553 36.155556
36.533333 36.898975 37.264678 37.630500 37.996505 38.362744 38.729280 39.096160
39.463444 39.831169 40.199391 40.568138 40.937461 41.307373 41.677919 42.049099
42.420947 42.793448 43.166625 43.540445 43.914920 44.289996 44.665670 45.041870
45.418575 45.795692 46.173181 46.550927 46.928872 47.306876 47.684859 48.062660
48.440177 48.817223 49.193676 49.569325 49.944025 50.317543 50.689712 51.060277
51.429052 51.795760 52.160198 52.522072 52.881162 53.237160 53.589832 53.938860
54.284001 54.624929 54.961398 55.293078 55.619722 55.941004 56.256679 56.566430
56.870020 57.167143 57.457576 57.741029 58.017293 58.286101 58.547263 58.800534
59.045745 59.282678 59.511186 59.731078 59.942229 60.144475 60.337714 60.521807
60.696675 60.862204 61.018332 61.164969 61.302068 61.429561 61.547415 61.655577
61.754027 61.842727 61.921663 61.990810 62.050161 62.099698 62.139419 62.169314
62.189382 62.199620 62.200028 62.190607 62.171360 62.142294 62.103410 62.054723
61.996237 61.927973 61.849940 61.762167 61.664669 61.557489 61.440648 61.314203
61.178187 61.032675 60.877713 60.713395 60.539786 60.357002 60.165125 59.964298
59.754624 59.536271 59.309363 59.074098 58.830623 58.579160 58.319879 58.053028
57.778800 57.497465 57.209233 56.914396 56.613181 56.305895 55.992777 55.674148
55.350254 55.021423 54.687904 54.350030 54.008047 53.662287 53.312990 52.960480
52.604989 52.246831 51.886223 51.523466 51.158760 50.792388 50.424532 50.055454
49.685319 49.314363 48.942729 48.570634 48.198197 47.825609 47.452969 47.080443
46.708109 46.336108 45.964498 45.593396 45.222839 44.852923 44.483665 44.115141
43.747351 43.380348 43.014119 42.648698 42.284057 41.920213 41.557127 41.194799
40.833180 40.472256 40.111971 39.752297 39.393170 39.034554 38.676380 38.318600
37.961145 37.603959 37.246971 36.890119 36.533333
36.911111 37.307311 37.703577 38.099979 38.496578 38.893444 39.290632 39.688212
40.086228 40.484749 40.883808 41.283468 41.683751 42.084712 42.486360 42.888739
43.291842 43.695704 44.100299 44.505647 44.911705 45.318478 45.725900 46.133958
46.542566 46.951692 47.361223 47.771109 48.181211 48.591457 49.001682 49.411791
49.821593 50.230967 50.639697 51.047639 51.454550 51.860261 52.264504 52.667088
53.067721 53.466190 53.862184 54.255469 54.645714 55.032672 55.415998 55.795429
56.170611 56.541275 56.907061 57.267694 57.622817 57.972156 58.315358 58.652157
58.982211 59.305265 59.620994 59.929158 60.229453 60.521659 60.805497 61.080769
61.347225 61.604691 61.852945 62.091841 62.321185 62.540858 62.750695 62.950602
63.140443 63.320144 63.489596 63.648747 63.797511 63.935851 64.063702 64.181040
64.287819 64.384024 64.469622 64.544607 64.608957 64.662669 64.705730 64.738140
64.759893 64.770990 64.771430 64.761213 64.740346 64.708828 64.666670 64.613874
64.550457 64.476424 64.391800 64.296594 64.190844 64.074564 63.947807 63.810598
63.663005 63.505067 63.336874 63.158482 62.970002 62.771510 62.563146 62.345006
62.117259 61.880026 61.633504 61.377842 61.113266 60.839948 60.558147 60.268059
59.969968 59.664096 59.350750 59.030172 58.702689 58.368559 58.028127 57.681661
57.329516 56.971968 56.609378 56.242021 55.870261 55.494367 55.114699 54.731518
54.345173 53.955912 53.564069 53.169878 52.773654 52.375611 51.976042 51.575139
51.173174 50.770315 50.366807 49.962795 49.558498 49.154035 48.749600 48.345288
47.941266 47.537604 47.134443 46.731833 46.329889 45.928638 45.528171 45.128498
44.729685 44.331724 43.934661 43.538471 43.143181 42.748753 42.355194 41.962454
41.570525 41.179347 40.788895 40.399104 40.009936 39.621319 39.233204 38.845514
38.458193 38.071162 37.684355 37.297695 36.911111
37.288889 37.715661 38.142508 38.569502 38.996718 39.424223 39.852092 40.280384
40.709172 41.138503 41.568447 41.999039 42.430342 42.862376 43.295197 43.728807
44.163252 44.598515 45.034629 45.471559 45.909319 46.347853 46.787160 47.227157
47.667824 48.109055 48.550805 48.992944 49.435403 49.878022 50.320710 50.763278
51.205608 51.647481 52.088755 52.529181 52.968589 53.406704 53.843329 54.278161
54.710979 55.141455 55.569345 55.994301 56.416056 56.834246 57.248587 57.658700
58.064292 58.464973 58.860443 59.250310 59.634273 60.011943 60.383022 60.747132
61.103985 61.453217 61.794556 62.127659 62.452274 62.768084 63.074860 63.372315
63.660248 63.938401 64.206603 64.464631 64.712341 64.949544 65.176123 65.391921
65.596850 65.790781 65.973650 66.145355 66.305852 66.455064 66.592963 66.719492
66.834635 66.938352 67.030637 67.111462 67.180826 67.238712 67.285122 67.320046
67.343488 67.355443 67.355914 67.344902 67.322408 67.288439 67.242996 67.186092
67.117727 67.037922 66.946682 66.844036 66.729995 66.604602 66.467876 66.319876
66.160635 65.990232 65.808716 65.616190 65.412722 65.198444 64.973447 64.737892
64.491898 64.235658 63.969318 63.693105 63.407192 63.111842 62.807255 62.493725
62.171481 61.840845 61.502070 61.155502 60.801417 60.440181 60.072082 59.697505
59.316748 58.930203 58.538173 58.141054 57.739146 57.332843 56.922438 56.508317
56.090760 55.670139 55.246717 54.820849 54.392778 53.962837 53.531245 53.098309
52.664225 52.229274 51.793623 51.357526 50.921123 50.484637 50.048184 49.611956
49.176044 48.740610 48.305720 47.871509 47.438018 47.005355 46.573540 46.142654
45.712698 45.283729 44.855729 44.428733 44.002707 43.577666 43.153560 42.730388
42.308088 41.886640 41.465975 41.046057 40.626809 40.208183 39.790097 39.372492
38.955282 38.538400 38.121759 37.705283 37.288889
37.666667 38.124026 38.581466 39.039070 39.496915 39.955084 40.413645 40.872682
41.332254 41.792439 42.253283 42.714862 43.177206 43.640381 44.104403 44.569328
45.035151 45.501915 45.969597 46.438223 46.907747 47.378178 47.849445 48.321536
48.794355 49.267868 49.741950 50.216541 50.691488 51.166705 51.642008 52.117284
52.592315 53.066962 53.540974 54.014183 54.486306 54.957146 55.426391 55.893814
56.359075 56.821920 57.281984 57.738988 58.192545 58.642356 59.088015 59.529208
59.965517 60.396615 60.822079 61.241577 61.654685 62.061074 62.460326 62.852121
63.236053 63.611817 63.979027 64.337397 64.686570 65.026282 65.356207 65.676112
65.985703 66.284778 66.573080 66.850441 67.116639 67.371538 67.614955 67.846781
68.066868 68.275137 68.471471 68.655813 68.828074 68.988220 69.136184 69.271946
69.395461 69.506719 69.605691 69.692374 69.766750 69.828821 69.878576 69.916020
69.941148 69.953963 69.954464 69.942653 69.918535 69.882109 69.833384 69.772358
69.699047 69.613450 69.515592 69.405475 69.283136 69.148584 69.001871 68.843019
68.672098 68.489146 68.294257 68.087488 67.868961 67.638759 67.397034 67.143896
66.879532 66.604083 66.317772 66.020772 65.713343 65.395689 65.068108 64.730834
64.384201 64.028470 63.664006 63.291095 62.910127 62.521409 62.125350 61.722273
61.312599 60.896659 60.474881 60.047597 59.615236 59.178123 58.736683 58.291228
57.842171 57.389808 56.934534 56.476624 56.016450 55.554265 55.090413 54.625121
54.158703 53.691359 53.223373 52.754913 52.286233 51.817472 51.348852 50.880482
50.412551 49.945143 49.478415 49.012423 48.547295 48.083063 47.619825 47.157591
46.696433 46.236339 45.777356 45.319454 44.862657 44.406919 43.952243 43.498569
43.045882 42.594109 42.143218 41.693129 41.243794 40.795126 40.347064 39.899518
39.452416 39.005664 38.559183 38.112879 37.666667
38.044444 38.532402 39.020450 39.508675 39.997168 40.486010 40.975292 41.465085
41.955478 42.446529 42.938324 43.430906 43.924354 44.418694 44.913995 45.410265
45.907560 46.405869 46.905230 47.405609 47.907028 48.409427 48.912807 49.417082
49.922229 50.428131 50.934743 51.441916 51.949576 52.457542 52.965712 53.473869
53.981882 54.489499 54.996557 55.502770 56.007941 56.511753 57.013976 57.514259
58.012343 58.507848 59.000485 59.489847 59.975621 60.457377 60.934782 61.407388
61.874846 62.336700 62.792590 63.242056 63.684736 64.120173 64.548013 64.967807
65.379213 65.781804 66.175255 66.559165 66.933234 67.297093 67.650473 67.993039
68.324558 68.644734 68.953369 69.250208 69.535090 69.807801 70.068213 70.316153
70.551525 70.774192 70.984086 71.181103 71.365200 71.536300 71.694380 71.839384