<?xml version="1.0"?>
<VTKFile type="ImageData" version="0.1" byte_order="LittleEndian">
  <ImageData WholeExtent="0 180 0 180 0 0" Origin="0.0 0.0 0.0" Spacing="0.05 0.05 1">
    <Piece Extent="0 180 0 180 0 0">
      <PointData Scalars="Temperature">
        <DataArray type="Float32" Name="Temperature" format="ascii">
32.000000 32.000000 32.000000 32.000000 32.000000 32.000000 32.000000 32.000000 32.000000 32.000000 32.000000 32.000000 32.000000 32.000000 32.000000 32.000000 32.000000 32.000000 32.000000 32.000000 32.000000 32.000000 32.000000 32.000000 32.000000 32.000000 32.000000 32.000000 32.000000 32.000000 32.000000 32.000000 32.000000 32.000000 32.000000 32.000000 32.000000 32.000000 32.000000 32.000000 32.000000 32.000000 32.000000 32.000000 32.000000 32.000000 32.000000 32.000000 32.000000 32.000000 32.000000 32.000000 32.000000 32.000000 32.000000 32.000000 32.000000 32.000000 32.000000 32.000000 32.000000 32.000000 32.000000 32.000000 32.000000 32.000000 32.000000 32.000000 32.000000 32.000000 32.000000 32.000000 32.000000 32.000000 32.000000 32.000000 32.000000 32.000000 32.000000 32.000000 32.000000 32.000000 32.000000 32.000000 32.000000 32.000000 32.000000 32.000000 32.000000 32.000000 32.000000 32.000000 32.000000 32.000000 32.000000 32.000000 32.000000 32.000000 32.000000 32.000000 32.000000 32.000000 32.000000 32.000000 32.000000 32.000000 32.000000 32.000000 32.000000 32.000000 32.000000 32.000000 32.000000 32.000000 32.000000 32.000000 32.000000 32.000000 32.000000 32.000000 32.000000 32.000000 32.000000 32.000000 32.000000 32.000000 32.000000 32.000000 32.000000 32.000000 32.000000 32.000000 32.000000 32.000000 32.000000 32.000000 32.000000 32.000000 32.000000 32.000000 32.000000 32.000000 32.000000 32.000000 32.000000 32.000000 32.000000 32.000000 32.000000 32.000000 32.000000 32.000000 32.000000 32.000000 32.000000 32.000000 32.000000 32.000000 32.000000 32.000000 32.000000 32.000000 32.000000 32.000000 32.000000 32.000000 32.000000 32.000000 32.000000 32.000000 32.000000 32.000000 32.000000 32.000000 32.000000 32.000000 32.000000 32.000000 32.000000 32.000000 32.000000
32.377778 32.350333 32.323115 32.296345 32.270234 32.244975 32.220743 32.197688 32.175935 32.155579 32.136689 32.119304 32.103437 32.089075 32.076184 32.064707 32.054576 32.045706 32.038005 32.031375 32.025713 32.020919 32.016894 32.013542 32.010774 32.008508 32.006667 32.005185 32.004002 32.003065 32.002329 32.001756 32.001314 32.000975 32.000718 32.000525 32.000381 32.000274 32.000195 32.000138 32.000097 32.000068 32.000047 32.000032 32.000022 32.000015 32.000011 32.000008 32.000005 32.000004 32.000003 32.000003 32.000003 32.000003 32.000003 32.000003 32.000003 32.000003 32.000004 32.000004 32.000004 32.000005 32.000005 32.000005 32.000005 32.000006 32.000006 32.000006 32.000006 32.000006 32.000007 32.000007 32.000007 32.000007 32.000007 32.000007 32.000007 32.000007 32.000007 32.000007 32.000007 32.000007 32.000007 32.000007 32.000007 32.000007 32.000007 32.000007 32.000007 32.000007 32.000007 32.000007 32.000007 32.000007 32.000007 32.000007 32.000007 32.000007 32.000007 32.000007 32.000007 32.000007 32.000007 32.000007 32.000007 32.000007 32.000007 32.000007 32.000007 32.000007 32.000006 32.000006 32.000006 32.000006 32.000006 32.000005 32.000005 32.000005 32.000005 32.000004 32.000004 32.000004 32.000003 32.000003 32.000003 32.000003 32.000003 32.000002 32.000003 32.000003 32.000003 32.000004 32.000005 32.000007 32.000011 32.000015 32.000022 32.000032 32.000047 32.000068 32.000097 32.000138 32.000195 32.000274 32.000381 32.000525 32.000718 32.000975 32.001314 32.001756 32.002329 32.003065 32.004002 32.005185 32.006667 32.008508 32.010774 32.013542 32.016894 32.020919 32.025713 32.031375 32.038005 32.045706 32.054576 32.064707 32.076184 32.089075 32.103437 32.119304 32.136689 32.155579 32.175935 32.197688 32.220743 32.244975 32.270234 32.296345 32.323115 32.350333 32.377778
32.755556 32.700666 32.646231 32.592691 32.540468 32.489950 32.441486 32.395376 32.351869 32.311158 32.273378 32.238609 32.206875 32.178151 32.152367 32.129415 32.109152 32.091413 32.076011 32.062749 32.051427 32.041839 32.033788 32.027084 32.021549 32.017016 32.013335 32.010371 32.008004 32.006130 32.004658 32.003513 32.002628 32.001951 32.001437 32.001050 32.000761 32.000548 32.000391 32.000277 32.000195 32.000136 32.000094 32.000065 32.000045 32.000031 32.000022 32.000015 32.000011 32.000009 32.000007 32.000006 32.000006 32.000006 32.000006 32.000007 32.000007 32.000008 32.000008 32.000009 32.000010 32.000010 32.000011 32.000011 32.000012 32.000012 32.000013 32.000013 32.000014 32.000014 32.000015 32.000015 32.000015 32.000016 32.000016 32.000016 32.000016 32.000016 32.000016 32.000017 32.000017 32.000017 32.000017 32.000017 32.000017 32.000017 32.000017 32.000017 32.000017 32.000017 32.000017 32.000017 32.000017 32.000017 32.000017 32.000017 32.000017 32.000017 32.000017 32.000017 32.000017 32.000016 32.000016 32.000016 32.000016 32.000016 32.000016 32.000015 32.000015 32.000015 32.000014 32.000014 32.000013 32.000013 32.000012 32.000012 32.000011 32.000011 32.000010 32.000010 32.000009 32.000008 32.000008 32.000007 32.000007 32.000006 32.000006 32.000006 32.000006 32.000006 32.000007 32.000008 32.000011 32.000015 32.000021 32.000031 32.000045 32.000065 32.000094 32.000136 32.000194 32.000277 32.000391 32.000547 32.000761 32.001050 32.001437 32.001951 32.002628 32.003513 32.004658 32.006130 32.008004 32.010371 32.013335 32.017016 32.021549 32.027084 32.033788 32.041839 32.051427 32.062749 32.076011 32.091413 32.109152 32.129415 32.152367 32.178151 32.206875 32.238609 32.273378 32.311158 32.351869 32.395376 32.441486 32.489950 32.540468 32.592691 32.646231 32.700666 32.755556
33.133333 33.050999 32.969346 32.889036 32.810702 32.734925 32.662229 32.593064 32.527804 32.466737 32.410068 32.357913 32.310312 32.267226 32.228551 32.194122 32.163728 32.137119 32.114016 32.094124 32.077140 32.062758 32.050682 32.040627 32.032323 32.025524 32.020002 32.015556 32.012006 32.009195 32.006988 32.005269 32.003942 32.002926 32.002155 32.001575 32.001142 32.000821 32.000586 32.000415 32.000292 32.000204 32.000142 32.000098 32.000068 32.000047 32.000033 32.000024 32.000018 32.000014 32.000012 32.000011 32.000010 32.000011 32.000011 32.000012 32.000013 32.000014 32.000015 32.000016 32.000017 32.000018 32.000019 32.000021 32.000022 32.000023 32.000023 32.000024 32.000025 32.000026 32.000026 32.000027 32.000028 32.000028 32.000028 32.000029 32.000029 32.000029 32.000030 32.000030 32.000030 32.000030 32.000030 32.000030 32.000030 32.000030 32.000030 32.000030 32.000030 32.000030 32.000030 32.000030 32.000030 32.000030 32.000030 32.000030 32.000030 32.000030 32.000030 32.000030 32.000030 32.000030 32.000029 32.000029 32.000029 32.000028 32.000028 32.000028 32.000027 32.000026 32.000026 32.000025 32.000024 32.000023 32.000023 32.000022 32.000021 32.000019 32.000018 32.000017 32.000016 32.000015 32.000014 32.000013 32.000012 32.000011 32.000010 32.000010 32.000010 32.000010 32.000011 32.000013 32.000017 32.000023 32.000032 32.000046 32.000067 32.000098 32.000141 32.000204 32.000292 32.000415 32.000586 32.000821 32.001142 32.001575 32.002155 32.002926 32.003942 32.005269 32.006987 32.009195 32.012006 32.015556 32.020002 32.025524 32.032323 32.040627 32.050682 32.062758 32.077140 32.094124 32.114016 32.137119 32.163728 32.194122 32.228551 32.267226 32.310312 32.357913 32.410068 32.466737 32.527804 32.593064 32.662229 32.734925 32.810702 32.889036 32.969346 33.050999 33.133333
33.511111 33.401333 33.292461 33.185382 33.080936 32.979900 32.882972 32.790752 32.703739 32.622317 32.546757 32.477218 32.413749 32.356302 32.304735 32.258830 32.218304 32.182825 32.152021 32.125499 32.102853 32.083678 32.067576 32.054169 32.043097 32.034031 32.026670 32.020741 32.016008 32.012260 32.009317 32.007025 32.005256 32.003902 32.002874 32.002100 32.001523 32.001095 32.000782 32.000554 32.000390 32.000273 32.000190 32.000131 32.000091 32.000064 32.000045 32.000033 32.000025 32.000021 32.000018 32.000017 32.000017 32.000018 32.000019 32.000020 32.000022 32.000023 32.000025 32.000027 32.000029 32.000031 32.000033 32.000035 32.000037 32.000038 32.000040 32.000041 32.000042 32.000044 32.000045 32.000046 32.000047 32.000047 32.000048 32.000049 32.000049 32.000050 32.000050 32.000050 32.000051 32.000051 32.000051 32.000051 32.000051 32.000051 32.000051 32.000051 32.000051 32.000051 32.000051 32.000051 32.000051 32.000051 32.000051 32.000051 32.000051 32.000051 32.000051 32.000051 32.000050 32.000050 32.000050 32.000049 32.000049 32.000048 32.000047 32.000047 32.000046 32.000045 32.000044 32.000042 32.000041 32.000040 32.000038 32.000037 32.000035 32.000033 32.000031 32.000029 32.000027 32.000025 32.000023 32.000022 32.000020 32.000018 32.000017 32.000016 32.000015 32.000016 32.000017 32.000019 32.000024 32.000032 32.000044 32.000063 32.000090 32.000131 32.000189 32.000272 32.000389 32.000554 32.000782 32.001095 32.001523 32.002100 32.002874 32.003902 32.005256 32.007025 32.009317 32.012260 32.016008 32.020741 32.026670 32.034031 32.043097 32.054169 32.067576 32.083678 32.102853 32.125499 32.152021 32.182825 32.218304 32.258830 32.304735 32.356302 32.413749 32.477218 32.546757 32.622317 32.703739 32.790752 32.882972 32.979900 33.080936 33.185382 33.292461 33.401333 33.511111
33.888889 33.751666 33.615576 33.481727 33.351170 33.224875 33.103715 32.988440 32.879674 32.777896 32.683446 32.596522 32.517187 32.445377 32.380918 32.323537 32.272881 32.228531 32.190026 32.156874 32.128566 32.104597 32.084471 32.067711 32.053872 32.042539 32.033337 32.025927 32.020010 32.015325 32.011646 32.008782 32.006570 32.004878 32.003593 32.002626 32.001904 32.001370 32.000978 32.000693 32.000488 32.000342 32.000238 32.000166 32.000116 32.000082 32.000059 32.000044 32.000035 32.000030 32.000027 32.000026 32.000027 32.000028 32.000030 32.000033 32.000035 32.000039 32.000042 32.000045 32.000048 32.000051 32.000054 32.000057 32.000060 32.000063 32.000065 32.000068 32.000070 32.000072 32.000074 32.000075 32.000077 32.000078 32.000079 32.000080 32.000081 32.000082 32.000082 32.000083 32.000083 32.000083 32.000084 32.000084 32.000084 32.000084 32.000084 32.000084 32.000084 32.000084 32.000084 32.000084 32.000084 32.000084 32.000084 32.000084 32.000084 32.000084 32.000083 32.000083 32.000083 32.000082 32.000082 32.000081 32.000080 32.000079 32.000078 32.000077 32.000075 32.000074 32.000072 32.000070 32.000068 32.000065 32.000063 32.000060 32.000057 32.000054 32.000051 32.000048 32.000045 32.000041 32.000038 32.000035 32.000033 32.000030 32.000027 32.000025 32.000024 32.000024 32.000025 32.000028 32.000033 32.000042 32.000057 32.000080 32.000115 32.000165 32.000237 32.000341 32.000487 32.000693 32.000978 32.001369 32.001903 32.002625 32.003592 32.004877 32.006570 32.008782 32.011646 32.015325 32.020010 32.025927 32.033337 32.042539 32.053872 32.067711 32.084471 32.104597 32.128566 32.156874 32.190026 32.228531 32.272881 32.323537 32.380918 32.445377 32.517187 32.596522 32.683446 32.777896 32.879674 32.988440 33.103715 33.224875 33.351170 33.481727 33.615576 33.751666 33.888889
34.266667 34.101999 33.938692 33.778073 33.621404 33.469850 33.324458 33.186128 33.055608 32.933475 32.820135 32.715826 32.620624 32.534453 32.457102 32.388245 32.327457 32.274238 32.228032 32.188248 32.154280 32.125517 32.101365 32.081253 32.064646 32.051047 32.040004 32.031112 32.024012 32.018390 32.013975 32.010538 32.007885 32.005853 32.004312 32.003151 32.002285 32.001644 32.001175 32.000833 32.000587 32.000412 32.000288 32.000201 32.000142 32.000102 32.000075 32.000058 32.000048 32.000042 32.000040 32.000040 32.000042 32.000045 32.000049 32.000053 32.000058 32.000062 32.000068 32.000072 32.000078 32.000083 32.000088 32.000092 32.000097 32.000101 32.000106 32.000109 32.000113 32.000116 32.000119 32.000122 32.000124 32.000126 32.000128 32.000130 32.000131 32.000132 32.000133 32.000134 32.000135 32.000135 32.000136 32.000136 32.000136 32.000136 32.000136 32.000137 32.000137 32.000137 32.000137 32.000137 32.000137 32.000136 32.000136 32.000136 32.000136 32.000136 32.000135 32.000135 32.000134 32.000133 32.000132 32.000131 32.000130 32.000128 32.000126 32.000124 32.000122 32.000119 32.000116 32.000113 32.000109 32.000106 32.000101 32.000097 32.000092 32.000088 32.000083 32.000078 32.000072 32.000067 32.000062 32.000057 32.000052 32.000048 32.000044 32.000040 32.000038 32.000036 32.000036 32.000039 32.000045 32.000055 32.000073 32.000100 32.000140 32.000200 32.000286 32.000411 32.000586 32.000832 32.001174 32.001644 32.002285 32.003151 32.004311 32.005853 32.007885 32.010538 32.013975 32.018390 32.024012 32.031112 32.040004 32.051047 32.064646 32.081253 32.101365 32.125517 32.154280 32.188248 32.228032 32.274238 32.327457 32.388245 32.457102 32.534453 32.620624 32.715826 32.820135 32.933475 33.055608 33.186128 33.324458 33.469850 33.621404 33.778073 33.938692 34.101999 34.266667
34.644444 34.452332 34.261807 34.074418 33.891638 33.714825 33.545200 33.383817 33.231543 33.089054 32.956824 32.835131 32.724061 32.623528 32.533286 32.452952 32.382033 32.319944 32.266037 32.219623 32.179993 32.146436 32.118259 32.094796 32.075421 32.059555 32.046672 32.036298 32.028014 32.021455 32.016305 32.012295 32.009199 32.006830 32.005031 32.003677 32.002667 32.001920 32.001372 32.000974 32.000687 32.000483 32.000339 32.000239 32.000171 32.000125 32.000095 32.000076 32.000066 32.000061 32.000060 32.000062 32.000065 32.000071 32.000077 32.000085 32.000092 32.000100 32.000108 32.000117 32.000124 32.000133 32.000141 32.000149 32.000156 32.000163 32.000169 32.000176 32.000181 32.000187 32.000191 32.000195 32.000199 32.000202 32.000205 32.000208 32.000210 32.000212 32.000213 32.000214 32.000215 32.000216 32.000217 32.000218 32.000218 32.000218 32.000219 32.000219 32.000219 32.000219 32.000219 32.000219 32.000219 32.000219 32.000218 32.000218 32.000218 32.000217 32.000216 32.000215 32.000214 32.000213 32.000212 32.000210 32.000208 32.000205 32.000202 32.000199 32.000195 32.000191 32.000187 32.000181 32.000176 32.000169 32.000163 32.000156 32.000149 32.000141 32.000133 32.000124 32.000117 32.000108 32.000100 32.000091 32.000084 32.000076 32.000070 32.000063 32.000059 32.000055 32.000054 32.000055 32.000061 32.000072 32.000091 32.000121 32.000168 32.000237 32.000337 32.000481 32.000686 32.000973 32.001371 32.001919 32.002666 32.003676 32.005030 32.006829 32.009199 32.012295 32.016305 32.021455 32.028014 32.036298 32.046672 32.059555 32.075421 32.094796 32.118259 32.146436 32.179993 32.219623 32.266037 32.319944 32.382033 32.452952 32.533286 32.623528 32.724061 32.835131 32.956824 33.089054 33.231543 33.383817 33.545200 33.714825 33.891638 34.074418 34.261807 34.452332 34.644444
35.022222 34.802665 34.584922 34.370764 34.161872 33.959800 33.765943 33.581505 33.407478 33.244633 33.093513 32.954435 32.827499 32.712603 32.609469 32.517660 32.436609 32.365650 32.304042 32.250998 32.205706 32.167356 32.135153 32.108338 32.086195 32.068063 32.053339 32.041483 32.032016 32.024520 32.018634 32.014052 32.010514 32.007806 32.005750 32.004204 32.003050 32.002196 32.001571 32.001116 32.000790 32.000557 32.000394 32.000281 32.000204 32.000153 32.000120 32.000101 32.000091 32.000088 32.000090 32.000094 32.000102 32.000111 32.000122 32.000133 32.000146 32.000158 32.000172 32.000185 32.000199 32.000211 32.000224 32.000236 32.000248 32.000259 32.000269 32.000279 32.000288 32.000296 32.000304 32.000310 32.000316 32.000321 32.000326 32.000330 32.000333 32.000336 32.000338 32.000340 32.000342 32.000343 32.000344 32.000345 32.000346 32.000347 32.000347 32.000347 32.000347 32.000347 32.000347 32.000347 32.000347 32.000347 32.000347 32.000346 32.000345 32.000344 32.000343 32.000342 32.000340 32.000338 32.000336 32.000333 32.000330 32.000326 32.000321 32.000316 32.000310 32.000304 32.000296 32.000288 32.000279 32.000269 32.000259 32.000248 32.000236 32.000224 32.000211 32.000198 32.000185 32.000172 32.000158 32.000146 32.000133 32.000121 32.000110 32.000100 32.000091 32.000085 32.000080 32.000079 32.000083 32.000094 32.000114 32.000147 32.000199 32.000277 32.000390 32.000554 32.000787 32.001114 32.001569 32.002195 32.003048 32.004203 32.005750 32.007805 32.010514 32.014051 32.018634 32.024520 32.032016 32.041483 32.053339 32.068063 32.086195 32.108338 32.135153 32.167356 32.205706 32.250998 32.304042 32.365650 32.436609 32.517660 32.609469 32.712603 32.827499 32.954435 33.093513 33.244633 33.407478 33.581505 33.765943 33.959800 34.161872 34.370764 34.584922 34.802665 35.022222
35.400000 35.152998 34.908038 34.667109 34.432106 34.204775 33.986686 33.779193 33.583412 33.400212 33.230203 33.073739 32.930936 32.801679 32.685653 32.582367 32.491185 32.411356 32.342048 32.282373 32.231420 32.188275 32.152047 32.121880 32.096970 32.076571 32.060007 32.046669 32.036019 32.027585 32.020964 32.015809 32.011829 32.008783 32.006471 32.004731 32.003433 32.002474 32.001771 32.001261 32.000895 32.000635 32.000453 32.000327 32.000243 32.000188 32.000154 32.000136 32.000128 32.000129 32.000134 32.000145 32.000158 32.000174 32.000191 32.000211 32.000229 32.000251 32.000270 32.000292 32.000312 32.000333 32.000352 32.000372 32.000390 32.000408 32.000424 32.000440 32.000453 32.000466 32.000477 32.000488 32.000497 32.000506 32.000512 32.000519 32.000524 32.000529 32.000532 32.000536 32.000538 32.000540 32.000542 32.000543 32.000544 32.000545 32.000546 32.000546 32.000547 32.000547 32.000547 32.000547 32.000546 32.000546 32.000545 32.000544 32.000543 32.000542 32.000540 32.000538 32.000536 32.000532 32.000529 32.000524 32.000519 32.000512 32.000506 32.000497 32.000488 32.000477 32.000466 32.000453 32.000440 32.000424 32.000408 32.000390 32.000372 32.000352 32.000333 32.000312 32.000292 32.000270 32.000250 32.000229 32.000210 32.000190 32.000173 32.000155 32.000142 32.000129 32.000120 32.000115 32.000116 32.000125 32.000145 32.000179 32.000235 32.000320 32.000447 32.000630 32.000891 32.001258 32.001768 32.002472 32.003432 32.004730 32.006470 32.008782 32.011828 32.015808 32.020964 32.027585 32.036018 32.046669 32.060007 32.076571 32.096969 32.121880 32.152047 32.188275 32.231419 32.282373 32.342048 32.411356 32.491185 32.582367 32.685653 32.801679 32.930936 33.073739 33.230203 33.400212 33.583412 33.779193 33.986686 34.204775 34.432106 34.667109 34.908038 35.152998 35.400000
35.777778 35.503331 35.231153 34.963455 34.702340 34.449751 34.207429 33.976881 33.759347 33.555791 33.366892 33.193044 33.034373 32.890754 32.761837 32.647074 32.545761 32.457063 32.380053 32.313748 32.257133 32.209195 32.168941 32.135423 32.107744 32.085079 32.066675 32.051855 32.040021 32.030651 32.023294 32.017567 32.013145 32.009761 32.007192 32.005260 32.003819 32.002754 32.001975 32.001409 32.001005 32.000718 32.000518 32.000382 32.000292 32.000235 32.000202 32.000186 32.000184 32.000190 32.000204 32.000222 32.000245 32.000270 32.000299 32.000327 32.000360 32.000390 32.000424 32.000455 32.000489 32.000519 32.000552 32.000580 32.000610 32.000636 32.000663 32.000685 32.000708 32.000727 32.000746 32.000761 32.000777 32.000789 32.000800 32.000809 32.000818 32.000824 32.000831 32.000835 32.000840 32.000843 32.000845 32.000847 32.000849 32.000850 32.000851 32.000852 32.000853 32.000853 32.000853 32.000853 32.000852 32.000851 32.000850 32.000849 32.000847 32.000845 32.000843 32.000840 32.000835 32.000831 32.000824 32.000818 32.000809 32.000800 32.000789 32.000777 32.000761 32.000746 32.000727 32.000708 32.000685 32.000663 32.000636 32.000610 32.000580 32.000552 32.000519 32.000489 32.000455 32.000424 32.000390 32.000359 32.000327 32.000298 32.000268 32.000243 32.000218 32.000198 32.000180 32.000169 32.000164 32.000169 32.000186 32.000221 32.000279 32.000372 32.000509 32.000710 32.000998 32.001404 32.001970 32.002751 32.003816 32.005258 32.007190 32.009759 32.013144 32.017566 32.023294 32.030651 32.040021 32.051854 32.066674 32.085079 32.107744 32.135422 32.168941 32.209195 32.257133 32.313747 32.380053 32.457063 32.545761 32.647074 32.761837 32.890754 33.034373 33.193044 33.366892 33.555791 33.759347 33.976881 34.207429 34.449751 34.702340 34.963455 35.231153 35.503331 35.777778
36.155556 35.853664 35.554268 35.259800 34.972574 34.694726 34.428172 34.174569 33.935282 33.711371 33.503581 33.312348 33.137811 32.979830 32.838020 32.711782 32.600337 32.502769 32.418058 32.345122 32.282846 32.230114 32.185836 32.148965 32.118519 32.093587 32.073343 32.057041 32.044024 32.033717 32.025625 32.019325 32.014462 32.010740 32.007916 32.005791 32.004208 32.003038 32.002182 32.001564 32.001121 32.000809 32.000593 32.000449 32.000354 32.000299 32.000269 32.000261 32.000266 32.000284 32.000307 32.000341 32.000376 32.000418 32.000460 32.000509 32.000555 32.000607 32.000655 32.000707 32.000755 32.000807 32.000852 32.000901 32.000943 32.000987 32.001024 32.001063 32.001095 32.001127 32.001153 32.001180 32.001201 32.001221 32.001237 32.001253 32.001265 32.001276 32.001285 32.001293 32.001298 32.001304 32.001308 32.001311 32.001314 32.001316 32.001317 32.001318 32.001319 32.001319 32.001319 32.001319 32.001318 32.001317 32.001316 32.001314 32.001311 32.001308 32.001304 32.001298 32.001293 32.001285 32.001276 32.001265 32.001253 32.001237 32.001221 32.001201 32.001180 32.001153 32.001127 32.001095 32.001063 32.001024 32.000987 32.000943 32.000901 32.000852 32.000807 32.000755 32.000707 32.000655 32.000606 32.000555 32.000508 32.000459 32.000416 32.000373 32.000336 32.000300 32.000273 32.000249 32.000237 32.000233 32.000246 32.000277 32.000336 32.000432 32.000580 32.000797 32.001111 32.001555 32.002175 32.003032 32.004203 32.005787 32.007913 32.010737 32.014460 32.019324 32.025624 32.033716 32.044023 32.057040 32.073342 32.093587 32.118519 32.148965 32.185836 32.230114 32.282846 32.345122 32.418058 32.502769 32.600337 32.711782 32.838020 32.979830 33.137811 33.312348 33.503581 33.711371 33.935282 34.174569 34.428172 34.694726 34.972574 35.259800 35.554268 35.853664 36.155556
36.533333 36.203998 35.877384 35.556146 35.242808 34.939701 34.648915 34.372257 34.111216 33.866950 33.640270 33.431653 33.241248 33.068905 32.914204 32.776489 32.654913 32.548475 32.456064 32.376497 32.308560 32.251034 32.202730 32.162507 32.129293 32.102096 32.080011 32.062227 32.048027 32.036784 32.027957 32.021085 32.015781 32.011721 32.008642 32.006326 32.004601 32.003327 32.002397 32.001725 32.001248 32.000912 32.000684 32.000533 32.000440 32.000387 32.000368 32.000368 32.000390 32.000421 32.000467 32.000516 32.000577 32.000639 32.000710 32.000779 32.000856 32.000930 32.001010 32.001084 32.001164 32.001236 32.001313 32.001381 32.001451 32.001513 32.001576 32.001629 32.001683 32.001728 32.001772 32.001809 32.001844 32.001873 32.001900 32.001921 32.001942 32.001957 32.001972 32.001983 32.001992 32.002000 32.002006 32.002011 32.002015 32.002018 32.002020 32.002022 32.002023 32.002023 32.002023 32.002023 32.002022 32.002020 32.002018 32.002015 32.002011 32.002006 32.002000 32.001992 32.001983 32.001972 32.001957 32.001942 32.001921 32.001900 32.001873 32.001844 32.001809 32.001772 32.001728 32.001683 32.001629 32.001576 32.001513 32.001451 32.001381 32.001313 32.001236 32.001164 32.001084 32.001010 32.000929 32.000856 32.000778 32.000709 32.000637 32.000574 32.000511 32.000459 32.000409 32.000372 32.000342 32.000328 32.000329 32.000355 32.000410 32.000508 32.000662 32.000894 32.001231 32.001712 32.002386 32.003318 32.004593 32.006320 32.008637 32.011717 32.015777 32.021083 32.027955 32.036783 32.048026 32.062226 32.080010 32.102095 32.129293 32.162507 32.202730 32.251034 32.308559 32.376497 32.456064 32.548475 32.654913 32.776489 32.914204 33.068905 33.241248 33.431653 33.640270 33.866950 34.111216 34.372257 34.648915 34.939701 35.242808 35.556146 35.877384 36.203998 36.533333
36.911111 36.554331 36.200499 35.852491 35.513041 35.184676 34.869658 34.569945 34.287151 34.022529 33.776959 33.550957 33.344685 33.157981 32.990388 32.841197 32.709489 32.594181 32.494069 32.407872 32.334273 32.271954 32.219624 32.176050 32.140068 32.110605 32.086679 32.067414 32.052031 32.039852 32.030290 32.022846 32.017101 32.012705 32.009371 32.006865 32.004999 32.003624 32.002621 32.001900 32.001388 32.001035 32.000796 32.000645 32.000555 32.000516 32.000508 32.000531 32.000570 32.000632 32.000700 32.000786 32.000874 32.000977 32.001078 32.001192 32.001301 32.001422 32.001535 32.001658 32.001770 32.001889 32.001996 32.002108 32.002207 32.002309 32.002396 32.002485 32.002559 32.002634 32.002696 32.002756 32.002805 32.002852 32.002890 32.002926 32.002953 32.002979 32.002999 32.003017 32.003031 32.003043 32.003052 32.003060 32.003065 32.003070 32.003073 32.003076 32.003077 32.003078 32.003078 32.003077 32.003076 32.003073 32.003070 32.003065 32.003060 32.003052 32.003043 32.003031 32.003017 32.002999 32.002979 32.002953 32.002926 32.002890 32.002852 32.002805 32.002756 32.002696 32.002634 32.002559 32.002485 32.002396 32.002309 32.002207 32.002108 32.001996 32.001889 32.001770 32.001657 32.001535 32.001422 32.001301 32.001191 32.001076 32.000974 32.000870 32.000780 32.000691 32.000619 32.000551 32.000502 32.000465 32.000453 32.000463 32.000512 32.000605 32.000764 32.001006 32.001365 32.001879 32.002605 32.003610 32.004988 32.006856 32.009364 32.012699 32.017097 32.022843 32.030287 32.039850 32.052030 32.067413 32.086678 32.110604 32.140068 32.176050 32.219624 32.271953 32.334273 32.407872 32.494069 32.594181 32.709489 32.841197 32.990388 33.157981 33.344685 33.550957 33.776959 34.022529 34.287151 34.569945 34.869658 35.184676 35.513041 35.852491 36.200499 36.554331 36.911111
37.288889 36.904664 36.523614 36.148837 35.783275 35.429651 35.090401 34.767633 34.463086 34.178108 33.913648 33.670261 33.448122 33.247056 33.066571 32.905904 32.764066 32.639888 32.532074 32.439247 32.359986 32.292873 32.236519 32.189593 32.150844 32.119114 32.093348 32.072602 32.056037 32.042921 32.032625 32.024610 32.018425 32.013694 32.010107 32.007411 32.005408 32.003932 32.002860 32.002091 32.001553 32.001182 32.000943 32.000794 32.000720 32.000695 32.000717 32.000764 32.000844 32.000936 32.001055 32.001178 32.001324 32.001470 32.001636 32.001796 32.001975 32.002144 32.002328 32.002499 32.002683 32.002849 32.003024 32.003180 32.003341 32.003482 32.003625 32.003748 32.003870 32.003973 32.004074 32.004157 32.004238 32.004302 32.004364 32.004413 32.004459 32.004494 32.004527 32.004552 32.004574 32.004591 32.004605 32.004616 32.004625 32.004632 32.004637 32.004641 32.004643 32.004644 32.004644 32.004643 32.004641 32.004637 32.004632 32.004625 32.004616 32.004605 32.004591 32.004574 32.004552 32.004527 32.004494 32.004459 32.004413 32.004364 32.004302 32.004238 32.004157 32.004074 32.003973 32.003870 32.003748 32.003625 32.003482 32.003341 32.003180 32.003024 32.002849 32.002682 32.002499 32.002328 32.002144 32.001974 32.001795 32.001634 32.001467 32.001321 32.001172 32.001046 32.000922 32.000823 32.000733 32.000671 32.000627 32.000621 32.000650 32.000737 32.000890 32.001141 32.001515 32.002062 32.002834 32.003911 32.005390 32.007398 32.010095 32.013685 32.018418 32.024605 32.032620 32.042918 32.056034 32.072600 32.093347 32.119113 32.150843 32.189592 32.236519 32.292873 32.359986 32.439247 32.532074 32.639888 32.764066 32.905904 33.066571 33.247056 33.448122 33.670261 33.913648 34.178108 34.463086 34.767633 35.090401 35.429651 35.783275 36.148837 36.523614 36.904664 37.288889
37.666667 37.254997 36.846729 36.445182 36.053509 35.674626 35.311144 34.965321 34.639021 34.333687 34.050338 33.789566 33.551560 33.336131 33.142755 32.970612 32.818642 32.685594 32.570080 32.470622 32.385700 32.313793 32.253414 32.203136 32.161619 32.127623 32.100018 32.077791 32.060043 32.045993 32.034962 32.026378 32.019754 32.014689 32.010850 32.007969 32.005828 32.004258 32.003119 32.002311 32.001747 32.001372 32.001132 32.001004 32.000948 32.000961 32.001014 32.001115 32.001236 32.001397 32.001566 32.001770 32.001976 32.002213 32.002444 32.002704 32.002953 32.003226 32.003483 32.003759 32.004013 32.004281 32.004524 32.004776 32.004998 32.005226 32.005423 32.005621 32.005790 32.005956 32.006095 32.006230 32.006340 32.006445 32.006529 32.006609 32.006671 32.006729 32.006773 32.006813 32.006843 32.006871 32.006891 32.006908 32.006921 32.006931 32.006938 32.006944 32.006947 32.006949 32.006949 32.006947 32.006944 32.006938 32.006931 32.006921 32.006908 32.006891 32.006871 32.006843 32.006813 32.006773 32.006729 32.006671 32.006609 32.006529 32.006445 32.006340 32.006230 32.006095 32.005956 32.005790 32.005621 32.005423 32.005226 32.004998 32.004776 32.004524 32.004281 32.004013 32.003759 32.003482 32.003226 32.002952 32.002703 32.002443 32.002210 32.001972 32.001764 32.001557 32.001382 32.001214 32.001081 32.000964 32.000888 32.000842 32.000850 32.000912 32.001059 32.001305 32.001693 32.002263 32.003082 32.004225 32.005803 32.007947 32.010833 32.014675 32.019744 32.026369 32.034956 32.045987 32.060040 32.077788 32.100016 32.127622 32.161618 32.203135 32.253413 32.313793 32.385700 32.470622 32.570080 32.685594 32.818642 32.970612 33.142755 33.336131 33.551560 33.789566 34.050338 34.333687 34.639021 34.965321 35.311144 35.674626 36.053509 36.445182 36.846729 37.254997 37.666667