<?xml version="1.0"?>
<VTKFile type="ImageData" version="0.1" byte_order="LittleEndian">
  <ImageData WholeExtent="0 180 0 180 0 0" Origin="0.0 0.0 0.0" Spacing="0.05 0.05 1">
    <Piece Extent="0 180 0 180 0 0">
      <PointData Scalars="Temperature">
        <DataArray type="Float32" Name="Temperature" format="ascii">
32.000000 32.000000 32.000000 32.000000 32.000000 32.000000 32.000000 32.000000 32.000000 32.000000 32.000000 32.000000 32.000000 32.000000 32.000000 32.000000 32.000000 32.000000 32.000000 32.000000 32.000000 32.000000 32.000000 32.000000 32.000000 32.000000 32.000000 32.000000 32.000000 32.000000 32.000000 32.000000 32.000000 32.000000 32.000000 32.000000 32.000000 32.000000 32.000000 32.000000 32.000000 32.000000 32.000000 32.000000 32.000000 32.000000 32.000000 32.000000 32.000000 32.000000 32.000000 32.000000 32.000000 32.000000 32.000000 32.000000 32.000000 32.000000 32.000000 32.000000 32.000000 32.000000 32.000000 32.000000 32.000000 32.000000 32.000000 32.000000 32.000000 32.000000 32.000000 32.000000 32.000000 32.000000 32.000000 32.000000 32.000000 32.000000 32.000000 32.000000 32.000000 32.000000 32.000000 32.000000 32.000000 32.000000 32.000000 32.000000 32.000000 32.000000 32.000000 32.000000 32.000000 32.000000 32.000000 32.000000 32.000000 32.000000 32.000000 32.000000 32.000000 32.000000 32.000000 32.000000 32.000000 32.000000 32.000000 32.000000 32.000000 32.000000 32.000000 32.000000 32.000000 32.000000 32.000000 32.000000 32.000000 32.000000 32.000000 32.000000 32.000000 32.000000 32.000000 32.000000 32.000000 32.000000 32.000000 32.000000 32.000000 32.000000 32.000000 32.000000 32.000000 32.000000 32.000000 32.000000 32.000000 32.000000 32.000000 32.000000 32.000000 32.000000 32.000000 32.000000 32.000000 32.000000 32.000000 32.000000 32.000000 32.000000 32.000000 32.000000 32.000000 32.000000 32.000000 32.000000 32.000000 32.000000 32.000000 32.000000 32.000000 32.000000 32.000000 32.000000 32.000000 32.000000 32.000000 32.000000 32.000000 32.000000 32.000000 32.000000 32.000000 32.000000 32.000000 32.000000 32.000000 32.000000 32.000000 32.000000 32.000000
32.377778 32.395296 32.412833 32.430409 32.448041 32.465753 32.483556 32.501476 32.519522 32.537722 32.556081 32.574627 32.593362 32.612315 32.631484 32.650899 32.670553 32.690476 32.710658 32.731127 32.751869 32.772913 32.794240 32.815877 32.837801 32.860038 32.882561 32.905393 32.928503 32.951915 32.975590 32.999551 33.023755 33.048223 33.072910 33.097831 33.122939 33.148247 33.173704 33.199321 33.225043 33.250880 33.276774 33.302733 33.328695 33.354667 33.380587 33.406459 33.432218 33.457870 33.483348 33.508655 33.533726 33.558563 33.583102 33.607343 33.631225 33.654747 33.677849 33.700531 33.722736 33.744463 33.765658 33.786323 33.806404 33.825904 33.844775 33.863018 33.880591 33.897494 33.913689 33.929179 33.943928 33.957940 33.971182 33.983660 33.995345 34.006242 34.016326 34.025604 34.034053 34.041679 34.048466 34.054417 34.059519 34.063776 34.067178 34.069728 34.071421 34.072257 34.072235 34.071355 34.069618 34.067024 34.063578 34.059277 34.054131 34.048136 34.041305 34.033635 34.025142 34.015821 34.005693 33.994753 33.983025 33.970505 33.957220 33.943167 33.928377 33.912847 33.896612 33.879670 33.862060 33.843780 33.824874 33.805341 33.785228 33.764534 33.743311 33.721558 33.699331 33.676629 33.653511 33.629975 33.606085 33.581838 33.557299 33.532466 33.507404 33.482111 33.456654 33.431030 33.405304 33.379473 33.353602 33.327686 33.301789 33.275904 33.250095 33.224351 33.198733 33.173231 33.147901 33.122731 33.097775 33.073018 33.048510 33.024234 33.000236 32.976497 32.953060 32.929903 32.907064 32.884519 32.862303 32.840389 32.818808 32.797533 32.776588 32.755945 32.735625 32.715598 32.695880 32.676442 32.657295 32.638408 32.619790 32.601410 32.583270 32.565342 32.547624 32.530087 32.512726 32.495513 32.478441 32.461481 32.444623 32.427841 32.411121 32.394439 32.377778
32.755556 32.790606 32.825697 32.860862 32.896146 32.931578 32.967207 33.003055 33.039174 33.075579 33.112326 33.149422 33.186924 33.224833 33.263207 33.302037 33.341384 33.381230 33.421635 33.462573 33.504103 33.546190 33.588892 33.632165 33.676064 33.720537 33.765636 33.811300 33.857578 33.904400 33.951811 33.999731 34.048204 34.097141 34.146579 34.196423 34.246706 34.297324 34.348307 34.399544 34.451060 34.502738 34.554597 34.606518 34.658516 34.710465 34.762378 34.814126 34.865719 34.917026 34.968054 35.018673 35.068886 35.118565 35.167711 35.216198 35.264027 35.311074 35.357341 35.402708 35.447177 35.490633 35.533080 35.574409 35.614623 35.653623 35.691412 35.727897 35.763085 35.796890 35.829319 35.860295 35.889827 35.917846 35.944362 35.969312 35.992708 36.014497 36.034689 36.053239 36.070156 36.085404 36.098992 36.110890 36.121105 36.129616 36.136427 36.141526 36.144915 36.146587 36.146543 36.144783 36.141306 36.136119 36.129220 36.120621 36.110318 36.098332 36.084657 36.069321 36.052316 36.033679 36.013401 35.991526 35.968044 35.943008 35.916409 35.888306 35.858692 35.827635 35.795127 35.761245 35.725982 35.689424 35.651564 35.612498 35.572220 35.530832 35.488330 35.444823 35.400309 35.354903 35.308603 35.261530 35.213682 35.165185 35.116038 35.066367 35.016172 34.965584 34.914597 34.863344 34.811818 34.760152 34.708336 34.656500 34.604633 34.552861 34.501168 34.449678 34.398371 34.347364 34.296634 34.246294 34.196313 34.146798 34.097716 34.049164 34.001105 33.953629 33.906693 33.860380 33.814644 33.769557 33.725069 33.681245 33.638031 33.595482 33.553543 33.512260 33.471573 33.431521 33.392044 33.353168 33.314835 33.277062 33.239790 33.203028 33.166716 33.130857 33.095391 33.060313 33.025565 32.991134 32.956965 32.923038 32.889302 32.855728 32.822270 32.788893 32.755556
33.133333 33.185948 33.238619 33.291410 33.344368 33.397563 33.451035 33.504859 33.559064 33.613729 33.668873 33.724579 33.780855 33.837787 33.895369 33.953689 34.012730 34.072580 34.133207 34.194701 34.257016 34.320240 34.384314 34.449323 34.515194 34.582009 34.649683 34.718290 34.787734 34.858084 34.929229 35.001234 35.073974 35.147509 35.221700 35.296600 35.372061 35.448128 35.524641 35.601639 35.678953 35.756616 35.834449 35.912478 35.990519 36.068592 36.146506 36.224278 36.301712 36.378821 36.455409 36.531483 36.606847 36.681506 36.755268 36.828136 36.899919 36.970622 37.040059 37.108234 37.174971 37.240272 37.303972 37.366073 37.426420 37.485019 37.541723 37.596542 37.649340 37.700129 37.748785 37.795322 37.839629 37.881721 37.921500 37.958980 37.994077 38.026807 38.057096 38.084958 38.110334 38.133237 38.153617 38.171487 38.186809 38.199592 38.209809 38.217467 38.222550 38.225061 38.224995 38.222352 38.217137 38.209347 38.198998 38.186084 38.170631 38.152629 38.132117 38.109083 38.083576 38.055583 38.025164 37.992306 37.957080 37.919472 37.879567 37.837350 37.792920 37.746262 37.697487 37.646583 37.593672 37.538744 37.481935 37.423236 37.362794 37.300603 37.236821 37.171444 37.104640 37.036406 36.966920 36.896178 36.824367 36.751484 36.677721 36.603073 36.527737 36.451708 36.375182 36.298154 36.220821 36.143172 36.065404 35.987501 35.909656 35.831849 35.754268 35.676886 35.599885 35.523232 35.447099 35.371449 35.296443 35.222035 35.148379 35.075421 35.003303 34.931964 34.861534 34.791945 34.723316 34.655572 34.588818 34.522975 34.458133 34.394211 34.331283 34.269263 34.208215 34.148050 34.088815 34.030421 33.972902 33.916169 33.860241 33.805029 33.750542 33.696690 33.643470 33.590795 33.538650 33.486951 33.435672 33.384734 33.334101 33.283697 33.233478 33.183375 33.133333
33.511111 33.581333 33.651636 33.722088 33.792779 33.863767 33.935150 34.006973 34.079340 34.152282 34.225909 34.300239 34.375384 34.451346 34.528241 34.606055 34.684904 34.764758 34.845733 34.927781 35.011017 35.095374 35.180965 35.267705 35.355703 35.444856 35.535267 35.626814 35.719596 35.813472 35.908533 36.004620 36.101818 36.199950 36.299091 36.399051 36.499893 36.601413 36.703666 36.806433 36.909761 37.013417 37.117441 37.221590 37.325894 37.430103 37.534240 37.638048 37.741545 37.844469 37.946833 38.048376 38.149104 38.248757 38.347342 38.444601 38.540538 38.634905 38.727703 38.818692 38.907877 38.995027 39.080147 39.163022 39.243658 39.321853 39.397617 39.470762 39.541301 39.609064 39.674065 39.736151 39.795337 39.851488 39.904622 39.954617 40.001495 40.045150 40.085602 40.122763 40.156652 40.187197 40.214413 40.238244 40.258704 40.275751 40.289394 40.299606 40.306393 40.309742 40.309654 40.306130 40.299167 40.288780 40.274961 40.257740 40.237104 40.213098 40.185707 40.154987 40.120924 40.083589 40.042964 39.999137 39.952088 39.901923 39.848621 39.792304 39.732954 39.670707 39.605548 39.537631 39.466942 39.393651 39.317748 39.239420 39.158657 39.075664 38.990433 38.903182 38.813908 38.722840 38.629976 38.535558 38.439584 38.342305 38.243718 38.144081 38.043390 37.941907 37.839626 37.736810 37.633448 37.529804 37.425861 37.321880 37.217836 37.113985 37.010296 36.907015 36.804104 36.701799 36.600053 36.499090 36.398852 36.299552 36.201123 36.103762 36.007392 35.912195 35.818086 35.725229 35.633531 35.543138 35.453951 35.366098 35.279472 35.194182 35.110118 35.027371 34.945824 34.865550 34.786431 34.708522 34.631701 34.556007 34.481317 34.407652 34.334891 34.263039 34.191977 34.121693 34.052072 33.983087 33.914629 33.846656 33.779065 33.711801 33.644769 33.577901 33.511111
33.888889 33.976781 34.064767 34.152954 34.241421 34.330286 34.419614 34.509532 34.600087 34.691415 34.783545 34.876617 34.970644 35.065770 35.161986 35.259439 35.358101 35.458118 35.559440 35.662214 35.766367 35.872043 35.979146 36.087816 36.197935 36.309637 36.422780 36.537491 36.653607 36.771244 36.890217 37.010635 37.132289 37.255277 37.379370 37.504656 37.630885 37.758134 37.886135 38.014954 38.144306 38.274244 38.404473 38.535033 38.665617 38.796257 38.926634 39.056773 39.186351 39.315382 39.443542 39.570839 39.696949 39.821877 39.945301 40.067223 40.187328 40.305618 40.421788 40.535839 40.647478 40.756709 40.863253 40.967118 41.068041 41.166032 41.260849 41.352503 41.440774 41.525676 41.607008 41.684789 41.758838 41.829178 41.895647 41.958270 42.016908 42.071585 42.122181 42.168720 42.211104 42.249355 42.283391 42.313233 42.338819 42.360163 42.377224 42.390011 42.398498 42.402692 42.402582 42.398170 42.389464 42.376458 42.359179 42.337615 42.311811 42.281751 42.247496 42.209028 42.166427 42.119670 42.068858 42.013967 41.955116 41.892281 41.825602 41.755055 41.680801 41.602819 41.521290 41.436195 41.347738 41.255902 41.160911 41.062754 40.961673 40.857660 40.750978 40.641621 40.529870 40.415721 40.299470 40.181115 40.060965 39.939017 39.815591 39.690684 39.564621 39.437398 39.309343 39.180446 39.051039 38.921104 38.790971 38.660615 38.530358 38.400169 38.270360 38.140890 38.012061 37.883819 37.756453 37.629899 37.504428 37.379966 37.256765 37.134740 37.014123 36.894818 36.777037 36.660672 36.545915 36.432646 36.321037 36.210958 36.102558 35.995700 35.890510 35.786846 35.684808 35.584251 35.485255 35.387667 35.291547 35.196743 35.103289 35.011035 34.919994 34.830019 34.741102 34.653097 34.565981 34.479612 34.393947 34.308852 34.224268 34.140069 34.056178 33.972482 33.888889
34.266667 34.372300 34.478054 34.584034 34.690375 34.797165 34.904551 35.012601 35.121472 35.231212 35.341987 35.453822 35.566889 35.681190 35.796901 35.913999 36.032663 36.152844 36.274720 36.398217 36.523510 36.650499 36.779354 36.909947 37.042443 37.176686 37.312833 37.450701 37.590437 37.731831 37.875018 38.019763 38.166189 38.314034 38.463407 38.614023 38.765979 38.918965 39.073064 39.227946 39.383679 39.539917 39.696713 39.853705 40.010935 40.168027 40.325012 40.481506 40.637530 40.792694 40.947010 41.100088 41.251934 41.402159 41.550766 41.697371 41.841976 41.984206 42.124064 42.261188 42.395582 42.526900 42.655149 42.780005 42.901475 43.019258 43.133365 43.243519 43.349737 43.451763 43.549620 43.643078 43.732161 43.816667 43.896623 43.971850 44.042377 44.108050 44.168899 44.224793 44.275761 44.321696 44.362622 44.398456 44.429220 44.454850 44.475362 44.490715 44.500920 44.505955 44.505824 44.500527 44.490061 44.474445 44.453671 44.427780 44.396755 44.360659 44.319472 44.273276 44.222048 44.165895 44.104788 44.038857 43.968075 43.892594 43.812388 43.727634 43.638305 43.544607 43.446514 43.344257 43.237815 43.127445 43.013128 42.895146 42.773487 42.648454 42.520040 42.388572 42.254044 42.116803 41.976847 41.834540 41.689880 41.543246 41.394635 41.244436 41.092646 40.939659 40.785467 40.630467 40.474646 40.318399 40.161705 40.004955 39.848117 39.691572 39.535279 39.379606 39.224499 39.070311 38.916974 38.764824 38.613779 38.464153 38.315850 38.169163 38.023981 37.880574 37.738817 37.598954 37.460847 37.324714 37.190407 37.058116 36.927683 36.799270 36.672711 36.548141 36.425386 36.304556 36.185470 36.068212 35.952598 35.838685 35.726289 35.615441 35.505960 35.397849 35.290931 35.185187 35.080445 34.976663 34.873676 34.771421 34.669743 34.568558 34.467723 34.367136 34.266667
34.644444 34.767911 34.891511 35.015393 35.139671 35.264511 35.390004 35.516328 35.643553 35.771867 35.901314 36.032091 36.164216 36.297891 36.433106 36.570068 36.708737 36.849319 36.991747 37.136224 37.282652 37.431230 37.581828 37.734640 37.889503 38.046604 38.205745 38.367105 38.530453 38.695956 38.863353 39.032795 39.203992 39.377078 39.551735 39.728082 39.905772 40.084908 40.265117 40.446487 40.628620 40.811588 40.994974 41.178835 41.362737 41.546722 41.730345 41.913634 42.096135 42.277868 42.458372 42.637660 42.815272 42.991213 43.165031 43.336725 43.505853 43.672413 43.835977 43.996544 44.153704 44.307457 44.457416 44.603586 44.745602 44.883474 45.016865 45.145790 45.269939 45.389335 45.503696 45.613048 45.717142 45.816006 45.909420 45.997416 46.079803 46.156614 46.227686 46.293052 46.352576 46.406289 46.454082 46.495981 46.531902 46.561868 46.585818 46.603769 46.615684 46.621571 46.621419 46.615227 46.603008 46.584753 46.560498 46.530228 46.494003 46.451799 46.403703 46.349687 46.289860 46.224192 46.152820 46.075710 45.993026 45.904735 45.811029 45.711876 45.607498 45.497865 45.383230 45.263566 45.139156 45.009978 44.876345 44.738240 44.596005 44.449628 44.299478 44.145549 43.988234 43.827530 43.663853 43.497203 43.328013 43.156284 42.982463 42.806552 42.629006 42.449823 42.269465 42.087923 41.905660 41.722659 41.539379 41.355792 41.172348 40.989009 40.806211 40.623901 40.442502 40.261941 40.082624 39.904462 39.727837 39.552645 39.379241 39.207504 39.037764 38.869882 38.704158 38.540440 38.378997 38.219662 38.062672 37.907850 37.755399 37.605130 37.457217 37.311460 37.168002 37.026636 36.887472 36.750300 36.615198 36.481954 36.350616 36.220972 36.093040 35.966610 35.841674 35.718026 35.595630 35.474289 35.353940 35.234396 35.115571 34.997290 34.879444 34.761871 34.644444
35.022222 35.163620 35.305181 35.447046 35.589396 35.732351 35.876106 36.020756 36.166510 36.313434 36.461751 36.611495 36.762896 36.915961 37.070922 37.227753 37.386691 37.547675 37.710941 37.876394 38.044265 38.214424 38.387098 38.562119 38.739705 38.919651 39.102165 39.287006 39.474367 39.663971 39.855998 40.050134 40.246540 40.444870 40.645268 40.847353 41.051250 41.256549 41.463356 41.671232 41.880263 42.089986 42.300470 42.511230 42.722317 42.933229 43.144003 43.354124 43.563615 43.771953 43.979152 44.184687 44.388561 44.590254 44.789764 44.986578 45.180692 45.371608 45.559321 45.743350 45.923694 46.099894 46.271954 46.439441 46.602364 46.760321 46.913325 47.061008 47.203390 47.340134 47.471268 47.596488 47.715828 47.829019 47.936098 48.036829 48.131253 48.219167 48.300611 48.375415 48.443617 48.505078 48.559832 48.607770 48.648920 48.683203 48.710638 48.731173 48.744822 48.751557 48.751384 48.744302 48.730307 48.709425 48.681643 48.647015 48.605518 48.557234 48.502134 48.440328 48.371781 48.296634 48.214848 48.126593 48.031831 47.930764 47.823352 47.709832 47.590168 47.464628 47.333182 47.196132 47.053453 46.905483 46.752201 46.593980 46.430806 46.263084 46.090806 45.914407 45.733885 45.549701 45.361859 45.170842 44.976655 44.779803 44.580289 44.378631 44.174833 43.969419 43.762388 43.554268 43.345049 43.135260 42.924876 42.714421 42.503858 42.293697 42.083885 41.874917 41.666723 41.459775 41.253986 41.049805 40.847123 40.646363 40.447396 40.250614 40.055870 39.863523 39.673408 39.485850 39.300666 39.118145 38.938091 38.760754 38.585926 38.413820 38.244215 38.077290 37.912812 37.750925 37.591391 37.434315 37.279456 37.126884 36.976357 36.827911 36.681305 36.536542 36.393386 36.251808 36.111578 35.972638 35.834768 35.697883 35.561773 35.426326 35.291350 35.156707 35.022222
35.400000 35.559450 35.719072 35.879062 36.039566 36.200800 36.362882 36.526044 36.690376 36.856123 37.023343 37.192290 37.362991 37.535705 37.710424 37.887412 38.066622 38.248320 38.432420 38.619186 38.808492 39.000598 39.195335 39.392956 39.593251 39.796460 40.002334 40.211099 40.422463 40.636635 40.853285 41.072604 41.294220 41.518304 41.744448 41.972802 42.202919 42.434930 42.668354 42.903298 43.139254 43.376307 43.613922 43.852163 44.090473 44.328899 44.566866 44.804405 45.040931 45.276458 45.510396 45.742751 45.972931 46.200934 46.426177 46.648652 46.867789 47.083578 47.295467 47.503449 47.706997 47.906105 48.100275 48.289509 48.473338 48.651774 48.824383 48.991182 49.151777 49.306192 49.454071 49.595446 49.729999 49.857768 49.978473 50.092157 50.198577 50.297778 50.389553 50.473948 50.550790 50.620121 50.681803 50.735874 50.782227 50.820891 50.851793 50.874952 50.890325 50.897922 50.897728 50.889743 50.873982 50.850435 50.819145 50.780093 50.733352 50.678894 50.616824 50.547106 50.469878 50.385099 50.292940 50.193357 50.086558 49.972498 49.851420 49.723282 49.588366 49.446632 49.298403 49.143645 48.982717 48.815595 48.642676 48.463943 48.279833 48.090335 47.895921 47.696589 47.492843 47.284686 47.072653 46.856749 46.637534 46.415015 46.189770 45.961806 45.731713 45.499494 45.265745 45.030464 44.794247 44.557080 44.319554 44.081642 43.843924 43.606355 43.369500 43.133296 42.898285 42.664384 42.432109 42.201356 41.972611 41.745746 41.521218 41.298874 41.079135 40.861828 40.647335 40.435464 40.226558 40.020404 39.817305 39.617032 39.419848 39.225508 39.034233 38.845767 38.660290 38.477537 38.297646 38.120348 37.945739 37.773548 37.603831 37.436317 37.271027 37.107690 36.946291 36.786566 36.628466 36.471736 36.316295 36.161898 36.008435 35.855678 35.703485 35.551648 35.400000
35.777778 35.955402 36.133232 36.311447 36.490276 36.669868 36.850473 37.032209 37.215342 37.399956 37.586329 37.774510 37.964786 38.157169 38.351950 38.549101 38.748918 38.951328 39.156626 39.364698 39.575833 39.789871 40.007096 40.227301 40.450758 40.677215 40.906931 41.139605 41.375481 41.614212 41.856021 42.100519 42.347906 42.597748 42.850222 43.104855 43.361798 43.620539 43.881204 44.143245 44.406765 44.671183 44.936579 45.202343 45.468535 45.734522 46.000344 46.265354 46.529571 46.792341 47.053669 47.312897 47.570020 47.824385 48.075980 48.324161 48.568915 48.809615 49.046248 49.278213 49.505499 49.727534 49.944314 50.155301 50.360499 50.559409 50.752043 50.937943 51.117132 51.289192 51.454156 51.611651 51.761716 51.904022 52.038614 52.165204 52.283843 52.394284 52.496577 52.590516 52.676150 52.753310 52.822040 52.882208 52.933851 52.976872 53.011298 53.037065 53.054191 53.062644 53.062430 53.053548 53.035993 53.009797 52.974942 52.931492 52.879420 52.818824 52.749665 52.672078 52.586017 52.491652 52.388935 52.278072 52.159013 52.032006 51.897001 51.754288 51.603820 51.445930 51.280577 51.108137 50.928579 50.742323 50.549344 50.350107 50.144597 49.933318 49.716267 49.493986 49.266479 49.034323 48.797529 48.556703 48.311861 48.063634 47.812036 47.557717 47.300690 47.041614 46.780497 46.518003 46.254127 45.989533 45.724202 45.458788 45.193254 44.928240 44.663688 44.400217 44.137746 43.876869 43.617480 43.360141 43.104723 42.851750 42.601070 42.353168 42.107867 41.865612 41.626200 41.390034 41.156890 40.927125 40.700494 40.477310 40.257311 40.040762 39.827386 39.617404 39.410527 39.206928 39.006310 38.808803 38.614104 38.422298 38.233080 38.046494 37.862236 37.680307 37.500410 37.322508 37.146311 36.971743 36.798529 36.626557 36.455565 36.285412 36.115853 35.946716 35.777778
36.155556 36.351501 36.547661 36.744274 36.941526 37.139678 37.338883 37.539422 37.741413 37.945153 38.150719 38.358423 38.568300 38.780671 38.995528 39.213195 39.433619 39.657126 39.883616 40.113410 40.346361 40.582783 40.822478 41.065751 41.312352 41.562573 41.816113 42.073245 42.333619 42.597487 42.864448 43.134732 43.407889 43.684123 43.962937 44.244508 44.528295 44.814447 45.102381 45.392220 45.683341 45.975840 46.269062 46.563077 46.857203 47.151485 47.445220 47.738432 48.030405 48.321144 48.609926 48.896743 49.180872 49.462296 49.740300 50.014863 50.285284 50.551542 50.812959 51.069518 51.320572 51.566107 51.805513 52.038786 52.265355 52.485228 52.697876 52.903320 53.101079 53.291182 53.473196 53.647163 53.812697 53.969846 54.118275 54.258037 54.388842 54.510746 54.623504 54.727173 54.821549 54.906685 54.982419 55.048797 55.105695 55.153151 55.191077 55.219500 55.238367 55.247691 55.247457 55.237663 55.218327 55.189435 55.151040 55.103115 55.045748 54.978901 54.902698 54.817094 54.722251 54.618116 54.504894 54.382528 54.251264 54.111046 53.962165 53.804568 53.638594 53.464193 53.281754 53.091235 52.893073 52.687237 52.474213 52.253980 52.027070 51.793477 51.553775 51.307968 51.056674 50.799904 50.538312 50.271916 50.001400 49.726786 49.448781 49.167407 48.883387 48.596737 48.308190 48.017753 47.726159 47.433403 47.140211 46.846559 46.553160 46.259969 45.967680 45.676221 45.386260 45.097701 44.811177 44.526565 44.244462 43.964717 43.687884 43.413785 43.142930 42.875113 42.610798 42.349753 42.092393 41.838462 41.588327 41.341708 41.098923 40.859674 40.624227 40.392270 40.164018 39.939148 39.717824 39.499716 39.284938 39.073157 38.864441 38.658454 38.455217 38.254401 38.055982 37.859636 37.665300 37.472659 37.281611 37.091857 36.903257 36.715529 36.528500 36.341911 36.155556
36.533333 36.747745 36.962407 37.177538 37.393414 37.610221 37.828258 38.047674 38.268787 38.491705 38.716763 38.944023 39.173834 39.406211 39.641509 39.879698 40.121132 40.365730 40.613849 40.865354 41.120593 41.379381 41.642056 41.908377 42.178668 42.452633 42.730578 43.012151 43.297639 43.586632 43.879394 44.175460 44.475067 44.777698 45.083560 45.392086 45.703452 46.017043 46.333004 46.650678 46.970178 47.290807 47.612649 47.934972 48.257835 48.580477 48.902931 49.224419 49.544950 49.863734 50.180763 50.495244 50.807157 51.115711 51.420880 51.721887 52.018703 52.310572 52.597466 52.878661 53.154134 53.423197 53.685836 53.941407 54.189907 54.430738 54.663912 54.888880 55.105668 55.313780 55.513254 55.703647 55.885008 56.056949 56.219525 56.372399 56.515634 56.648941 56.772384 56.885723 56.989020 57.082079 57.164956 57.237500 57.299756 57.351613 57.393107 57.424163 57.444804 57.454994 57.454740 57.444042 57.422892 57.391327 57.349324 57.296959 57.234194 57.161142 57.077756 56.984190 56.880387 56.766542 56.642595 56.508787 56.365054 56.211685 56.048618 55.876193 55.694353 55.503489 55.303553 55.094990 54.877763 54.652370 54.418787 54.177565 53.928695 53.672777 53.409815 53.140459 52.864723 52.583301 52.296216 52.004199 51.707280 51.406219 51.101049 50.792551 50.480756 50.166461 49.849687 49.531236 49.211118 48.890132 48.568269 48.246318 47.924248 47.602828 47.282002 46.962514 46.644279 46.328006 46.013582 45.701679 45.392150 45.085624 44.781923 44.481629 44.184534 43.891169 43.601295 43.315392 43.033194 42.755126 42.480896 42.210875 41.944750 41.682834 41.424797 41.170896 40.920787 40.674673 40.432196 40.193506 39.958240 39.726495 39.497904 39.272514 39.049960 38.830239 38.612991 38.398168 38.185419 37.974652 37.765531 37.557919 37.351500 37.146100 36.941422 36.737257 36.533333
36.911111 37.144160 37.377465 37.611314 37.845928 38.081623 38.318581 38.557140 38.797441 39.039840 39.284433 39.531590 39.781359 40.034120 40.289870 40.548995 40.811436 41.077580 41.347316 41.621023 41.898533 42.180219 42.465852 42.755792 43.049749 43.348068 43.650398 43.957060 44.267646 44.582450 44.901003 45.223572 45.549630 45.879413 46.212335 46.548601 46.887570 47.229413 47.573440 47.919786 48.267715 48.617330 48.967854 49.319356 49.671027 50.022908 50.374162 50.724803 51.073978 51.421678 51.767043 52.110046 52.449827 52.786350 53.118763 53.447024 53.770303 54.088558 54.400985 54.707549 55.007482 55.300759 55.586655 55.865158 56.135595 56.397965 56.651651 56.896669 57.132457 57.359048 57.575937 57.783171 57.980304 58.167395 58.344055 58.510349 58.665946 58.810914 58.944975 59.068197 59.180351 59.281502 59.371467 59.450304 59.517873 59.574222 59.619252 59.652996 59.675396 59.686468 59.686195 59.674575 59.651628 59.617337 59.571760 59.514864 59.446747 59.367363 59.276851 59.175154 59.062455 58.938688 58.804086 58.658577 58.502444 58.335616 58.158429 57.970815 57.773166 57.565424 57.348038 57.120961 56.884700 56.639223 56.385097 56.122304 55.851469 55.572591 55.286347 54.992754 54.692538 54.385729 54.073098 53.754683 53.431294 53.102974 52.770562 52.434101 52.094450 51.751647 51.406563 51.059222 50.710498 50.360400 50.009791 49.658658 49.307850 48.957326 48.607909 48.259529 47.912976 47.568148 47.225794 46.885779 46.548808 46.214709 45.884137 45.556887 45.233560 44.913918 44.598505 44.287051 43.980042 43.677179 43.378889 43.084846 42.795417 42.510254 42.229663 41.953278 41.681345 41.413484 41.149882 40.890148 40.634412 40.382278 40.133820 39.888641 39.646761 39.407786 39.171685 38.938072 38.706867 38.477697 38.250434 38.024724 37.800395 37.577113 37.354667 37.132749 36.911111
37.288889 37.540738 37.792884 38.045585 38.299169 38.553858 38.810004 39.067786 39.327579 39.589515 39.853986 40.121075 40.391186 40.664347 40.940973 41.221035 41.504949 41.792629 42.084488 42.380379 42.680710 42.985269 43.294452 43.607984 43.926243 44.248890 44.576281 44.908012 45.244412 45.585013 45.930115 46.279184 46.632488 46.989430 47.350244 47.714270 48.081707 48.451837 48.824821 49.199890 49.577164 49.955830 50.335969 50.716728 51.098155 51.479362 51.860367 52.240258 52.619026 52.995744 53.370382 53.742009 54.110578 54.475165 54.835715 55.191319 55.541920 55.886634 56.225410 56.557401 56.882562 57.200091 57.509958 57.811413 58.104441 58.388349 58.663142 58.928188 59.183510 59.428538 59.663315 59.887334 60.100652 60.302826 60.493924 60.673564 60.841823 60.998377 61.143303 61.276334 61.397546 61.506721 61.603930 61.689004 61.762001 61.822798 61.871439 61.907844 61.932040 61.943987 61.943694 61.931163 61.906382 61.869392 61.820166 61.758784 61.685202 61.599543 61.501750 61.391990 61.270195 61.136583 60.991076 60.833945 60.665112 60.484901 60.293237 60.090504 59.876634 59.652072 59.416761 59.171212 58.915383 58.649847 58.374581 58.090222 57.796765 57.494910 57.184670 56.866802 56.541338 56.209086 55.870090 55.525206 55.174486 54.818824 54.458274 54.093757 53.725327 53.353920 52.979582 52.603256 52.224973 51.845671 51.465359 51.084963 50.704464 50.324765 49.945816 49.568487 49.192694 48.819267 48.448085 48.079931 47.714647 47.352963 46.994681 46.640477 46.290116 45.944211 45.602493 45.265513 44.932967 44.605344 44.282307 43.964281 43.650905 43.342535 43.038789 42.739959 42.445643 42.156070 41.870825 41.590074 41.313393 41.040887 40.772128 40.507162 40.245563 39.987319 39.732011 39.479574 39.229598 38.981967 38.736287 38.492395 38.249916 38.008642 37.768224 37.528413 37.288889
37.666667 37.937507 38.208649 38.480429 38.753108 39.027054 39.302484 39.579792 39.859146 40.140962 40.425358 40.712763 41.003240 41.297231 41.594739 41.896211 42.201590 42.511323 42.825287 43.143926 43.467050 43.795092 44.127795 44.465573 44.808104 45.155779 45.508205 45.865748 46.227945 46.595131 46.966772 47.343171 47.723724 48.108696 48.497418 48.890114 49.286050 49.685411 50.087401 50.492164 50.898850 51.307561 51.717399 52.128426 52.539705 52.951261 53.362124 53.772289 54.180765 54.587518 54.991547 55.392798 55.790271 56.183900 56.572694 56.956583 57.334601 57.706677 58.071880 58.430149 58.780596 59.123173 59.457047 59.782186 60.097818 60.403933 60.699822 60.985497 61.260319 61.524321 61.776931 62.018204 62.247638 62.465300 62.670757 62.864089 63.044925 63.213351 63.369058 63.512133 63.642322 63.759708 63.864090 63.955541 64.033909 64.099253 64.151466 64.190590 64.216562 64.229403 64.229092 64.215630 64.189037 64.149291 64.096456 64.030491 63.951501 63.859428 63.754425 63.636417 63.505608 63.361915 63.205591 63.036550 62.855103 62.661164 62.455105 62.236847 62.006826 61.764974 61.511796 61.247238 60.971877 60.685678 60.389287 60.082690 59.766603 59.441035 59.106766 58.763827 58.413058 58.054509 57.689074 57.316816 56.938675 56.554722 56.165931 55.772377 55.375057 54.974040 54.570338 54.164004 53.756052 53.346517 52.936401 52.525713 52.115435 51.705542 51.296987 50.889707 50.484616 50.081612 49.681560 49.284319 48.890697 48.500512 48.114514 47.732477 47.355089 46.982083 46.614082 46.250778 45.892728 45.539589 45.191846 44.849128 44.511848 44.179607 43.852750 43.530856 43.214200 42.902342 42.595490 42.293194 41.995594 41.702232 41.413185 41.127992 40.846671 40.568763 40.294224 40.022609 39.753815 39.487410 39.223241 38.960894 38.700164 38.440664 38.182143 37.924241 37.666667