# vtk DataFile Version 3.0
Steady-state temperature (Jacobi)
ASCII
DATASET STRUCTURED_POINTS
DIMENSIONS 181 181 1
ORIGIN 0.0 0.0 0.0
SPACING 0.05 0.05 1.0
POINT_DATA 32761
SCALARS Temperature float 1
LOOKUP_TABLE default
32.000000 32.000000 32.000000 32.000000 32.000000 32.000000 32.000000 32.000000
32.000000 32.000000 32.000000 32.000000 32.000000 32.000000 32.000000 32.000000
32.000000 32.000000 32.000000 32.000000 32.000000 32.000000 32.000000 32.000000
32.000000 32.000000 32.000000 32.000000 32.000000 32.000000 32.000000 32.000000
32.000000 32.000000 32.000000 32.000000 32.000000 32.000000 32.000000 32.000000
32.000000 32.000000 32.000000 32.000000 32.000000 32.000000 32.000000 32.000000
32.000000 32.000000 32.000000 32.000000 32.000000 32.000000 32.000000 32.000000
32.000000 32.000000 32.000000 32.000000 32.000000 32.000000 32.000000 32.000000
32.000000 32.000000 32.000000 32.000000 32.000000 32.000000 32.000000 32.000000
32.000000 32.000000 32.000000 32.000000 32.000000 32.000000 32.000000 32.000000
32.000000 32.000000 32.000000 32.000000 32.000000 32.000000 32.000000 32.000000
32.000000 32.000000 32.000000 32.000000 32.000000 32.000000 32.000000 32.000000
32.000000 32.000000 32.000000 32.000000 32.000000 32.000000 32.000000 32.000000
32.000000 32.000000 32.000000 32.000000 32.000000 32.000000 32.000000 32.000000
32.000000 32.000000 32.000000 32.000000 32.000000 32.000000 32.000000 32.000000
32.000000 32.000000 32.000000 32.000000 32.000000 32.000000 32.000000 32.000000
32.000000 32.000000 32.000000 32.000000 32.000000 32.000000 32.000000 32.000000
32.000000 32.000000 32.000000 32.000000 32.000000 32.000000 32.000000 32.000000
32.000000 32.000000 32.000000 32.000000 32.000000 32.000000 32.000000 32.000000
32.000000 32.000000 32.000000 32.000000 32.000000 32.000000 32.000000 32.000000
32.000000 32.000000 32.000000 32.000000 32.000000 32.000000 32.000000 32.000000
32.000000 32.000000 32.000000 32.000000 32.000000 32.000000 32.000000 32.000000
32.000000 32.000000 32.000000 32.000000 32.000000
32.377778 32.370299 32.362851 32.355471 32.348184 32.341033 32.334037 32.327242
32.320662 32.314347 32.308303 32.302586 32.297194 32.292187 32.287556 32.283363
32.279592 32.276309 32.273488 32.271199 32.269407 32.268186 32.267491 32.267398
32.267852 32.268933 32.270577 32.272864 32.275720 32.279229 32.283306 32.288037
32.293326 32.299261 32.305737 32.312842 32.320462 32.328686 32.337392 32.346668
32.356384 32.366630 32.377266 32.388384 32.399838 32.411718 32.423873 32.436395
32.449126 32.462159 32.475333 32.488741 32.502220 32.515862 32.529505 32.543240
32.556905 32.570592 32.584141 32.597643 32.610942 32.624128 32.637051 32.649797
32.662225 32.674418 32.686242 32.697780 32.708904 32.719694 32.730031 32.739993
32.749471 32.758536 32.767091 32.775202 32.782783 32.789892 32.796456 32.802526
32.808039 32.813040 32.817477 32.821386 32.824728 32.827530 32.829763 32.831446
32.832561 32.833119 32.833113 32.832543 32.831416 32.829720 32.827475 32.824660
32.821304 32.817379 32.812927 32.807909 32.802377 32.796288 32.789703 32.782571
32.774966 32.766828 32.758244 32.749147 32.739636 32.729637 32.719260 32.708428
32.697258 32.685671 32.673793 32.661542 32.649054 32.636242 32.623249 32.609988
32.596609 32.583023 32.569384 32.555601 32.541835 32.527993 32.514238 32.500477
32.486873 32.473334 32.460023 32.446846 32.433966 32.421288 32.408971 32.396922
32.385295 32.373997 32.363175 32.352738 32.342826 32.333348 32.324438 32.316004
32.308171 32.300850 32.294155 32.288000 32.282489 32.277536 32.273237 32.269507
32.266431 32.263927 32.262071 32.260781 32.260124 32.260021 32.260528 32.261569
32.263191 32.265321 32.267996 32.271146 32.274799 32.278890 32.283436 32.288377
32.293722 32.299412 32.305452 32.311786 32.318411 32.325274 32.332367 32.339641
32.347079 32.354640 32.362301 32.370023 32.377778
32.755556 32.740614 32.725740 32.710992 32.696447 32.682152 32.668194 32.654607
32.641488 32.628855 32.616817 32.605377 32.594650 32.584627 32.575430 32.567032
32.559564 32.552982 32.547424 32.542828 32.539339 32.536875 32.535588 32.535379
32.536402 32.538539 32.541950 32.546498 32.552346 32.559336 32.567636 32.577067
32.587802 32.599641 32.612760 32.626938 32.642355 32.658771 32.676367 32.694887
32.714512 32.734970 32.756443 32.778645 32.801759 32.825484 32.850006 32.875013
32.900690 32.926719 32.953285 32.980062 33.007238 33.034483 33.061984 33.089414
33.116957 33.144291 33.171597 33.198559 33.225359 33.251689 33.277727 33.303178
33.328216 33.352562 33.376383 33.399417 33.421826 33.443364 33.464189 33.484073
33.503164 33.521257 33.538489 33.554676 33.569944 33.584131 33.597351 33.609463
33.620566 33.630545 33.639480 33.647281 33.654010 33.659600 33.664097 33.667455
33.669702 33.670814 33.670803 33.669666 33.667395 33.664013 33.659490 33.653874
33.647116 33.639286 33.630318 33.620306 33.609166 33.597015 33.583753 33.569521
33.554203 33.537963 33.520673 33.502517 33.483358 33.463401 33.442497 33.420873
33.398372 33.375239 33.351311 33.326852 33.301691 33.276108 33.249930 33.223451
33.196492 33.169360 33.141874 33.114350 33.086604 33.058961 33.031234 33.003751
32.976327 32.949287 32.922447 32.896131 32.870155 32.844836 32.819990 32.795928
32.772466 32.749905 32.728060 32.707220 32.687203 32.668281 32.650274 32.633439
32.617597 32.602986 32.589431 32.577151 32.565973 32.556097 32.547352 32.539921
32.533634 32.528653 32.524816 32.522262 32.520833 32.520651 32.521561 32.523665
32.526815 32.531094 32.536360 32.542677 32.549909 32.558103 32.567130 32.577021
32.587654 32.599043 32.611073 32.623746 32.636952 32.650680 32.664829 32.679373
32.694221 32.709335 32.724632 32.740063 32.755556
33.133333 33.110968 33.088697 33.066630 33.044846 33.023469 33.002558 32.982255
32.962596 32.943738 32.925697 32.908640 32.892564 32.877646 32.863861 32.851398
32.840205 32.830483 32.822153 32.815428 32.810201 32.806693 32.804770 32.804662
32.806205 32.809637 32.814765 32.821833 32.830617 32.841369 32.853834 32.868270
32.884390 32.902457 32.922155 32.943750 32.966898 32.991869 33.018290 33.046432
33.075899 33.106964 33.139206 33.172899 33.207603 33.243593 33.280409 33.318329
33.356879 33.396337 33.436219 33.476801 33.517596 33.558878 33.600159 33.641713
33.683053 33.724454 33.765434 33.806267 33.846483 33.886352 33.925421 33.963955
34.001520 34.038374 34.074109 34.108973 34.142585 34.175183 34.206414 34.236505
34.265132 34.292510 34.318346 34.342838 34.365727 34.387192 34.407007 34.425331
34.441972 34.457068 34.470459 34.482259 34.492344 34.500799 34.507538 34.512617
34.515984 34.517667 34.517649 34.515930 34.512527 34.507412 34.500635 34.492139
34.482012 34.470168 34.456728 34.441582 34.424886 34.406503 34.386625 34.365092
34.342129 34.317557 34.291634 34.264162 34.235433 34.205232 34.173882 34.141156
34.107406 34.072393 34.036499 33.999473 33.961724 33.922995 33.883715 33.843622
33.803166 33.762079 33.720828 33.679142 33.637498 33.595624 33.554005 33.512366
33.471198 33.430222 33.389929 33.350041 33.311042 33.272654 33.235352 33.198857
33.163631 33.129398 33.096600 33.064962 33.034907 33.006161 32.979125 32.953526
32.929739 32.907495 32.887142 32.868414 32.851629 32.836527 32.823396 32.811981
32.802539 32.794822 32.789056 32.784999 32.782848 32.782368 32.783726 32.786696
32.791415 32.797665 32.805558 32.814882 32.825723 32.837881 32.851414 32.866133
32.882072 32.899052 32.917084 32.936002 32.955796 32.976309 32.997512 33.019261
33.041507 33.064121 33.087035 33.110134 33.133333
33.511111 33.481372 33.451769 33.422419 33.393479 33.365041 33.337282 33.310268
33.284196 33.259105 33.235209 33.212518 33.191263 33.171423 33.153247 33.136680
33.121985 33.109075 33.098226 33.089315 33.082632 33.078016 33.075769 33.075693
33.078099 33.082750 33.089969 33.099476 33.111604 33.126033 33.143102 33.162451
33.184427 33.208628 33.235407 33.264324 33.295734 33.329160 33.364963 33.402628
33.442518 33.484087 33.527701 33.572782 33.619697 33.667845 33.717592 33.768316
33.820386 33.873161 33.927011 33.981284 34.036350 34.091553 34.147261 34.202820
34.258595 34.313941 34.369219 34.423798 34.478035 34.531317 34.583997 34.635486
34.686129 34.735365 34.783533 34.830103 34.875401 34.918936 34.961020 35.001199
35.039770 35.076320 35.111125 35.143816 35.174647 35.203293 35.229981 35.254432
35.276844 35.296984 35.315018 35.330759 35.344339 35.355618 35.364692 35.371467
35.376000 35.378245 35.378222 35.375929 35.371348 35.364524 35.355399 35.344066
35.330430 35.314629 35.296532 35.276324 35.253840 35.229310 35.202538 35.173800
35.142870 35.110072 35.075151 35.038476 34.999770 34.959444 34.917202 34.873496
34.828014 34.781246 34.732866 34.683400 34.632512 34.580762 34.527801 34.474220
34.419664 34.364746 34.309108 34.253380 34.197200 34.141214 34.085056 34.029378
33.973813 33.919016 33.864618 33.811269 33.758601 33.707254 33.656857 33.608038
33.560425 33.514625 33.470269 33.427936 33.387261 33.348793 33.312169 33.277906
33.245644 33.215864 33.188211 33.163129 33.140267 33.120030 33.102073 33.086761
33.073757 33.063384 33.055315 33.049831 33.046615 33.045909 33.047404 33.051303
33.057310 33.065590 33.075856 33.088239 33.102465 33.118628 33.136469 33.156048
33.177120 33.199714 33.223600 33.248777 33.275029 33.302330 33.330479 33.359423
33.388979 33.419070 33.449530 33.480259 33.511111
33.888889 33.851853 33.814975 33.778442 33.742382 33.707008 33.672417 33.638846
33.606360 33.575218 33.545450 33.517337 33.490872 33.466356 33.443744 33.423353
33.405099 33.389318 33.375880 33.365139 33.356920 33.351591 33.348931 33.349323
33.352494 33.358843 33.368048 33.380516 33.395875 33.414545 33.436101 33.460971
33.488680 33.519665 33.553398 33.590324 33.629866 33.672474 33.717525 33.765473
33.815652 33.868517 33.923364 33.980651 34.039637 34.100783 34.163317 34.227703
34.293144 34.360104 34.427771 34.496606 34.565790 34.635782 34.705760 34.776182
34.846232 34.916365 34.985778 35.054921 35.123013 35.190497 35.256620 35.321818
35.385370 35.447704 35.508135 35.567080 35.623900 35.678992 35.731767 35.782603
35.830961 35.877197 35.920825 35.962173 36.000811 36.037037 36.070477 36.101394
36.129471 36.154934 36.177523 36.197423 36.214431 36.228689 36.240053 36.248616
36.254293 36.257132 36.257102 36.254205 36.248468 36.239842 36.228415 36.214090
36.197012 36.177037 36.154369 36.128822 36.100654 36.069638 36.036093 35.999753
35.960991 35.919509 35.875737 35.829344 35.780817 35.729797 35.676825 35.621519
35.564470 35.505277 35.444580 35.381961 35.318103 35.252577 35.186103 35.118245
35.049755 34.980187 34.910324 34.839714 34.769159 34.698203 34.627661 34.557076
34.487269 34.417779 34.349426 34.281750 34.215560 34.150395 34.087050 34.025063
33.965207 33.907020 33.851246 33.797426 33.746267 33.697315 33.651238 33.607583
33.566977 33.528972 33.494148 33.462062 33.433246 33.407266 33.384602 33.364828
33.348375 33.334825 33.324559 33.317171 33.312989 33.311619 33.313342 33.317776
33.325153 33.335106 33.347820 33.362943 33.380615 33.400503 33.422701 33.446894
33.473136 33.501130 33.530893 33.562144 33.594866 33.628798 33.663888 33.699896
33.736740 33.774202 33.812168 33.850444 33.888889
34.266667 34.222417 34.178375 34.134715 34.091676 34.049398 34.008150 33.968031
33.929340 33.892135 33.856742 33.823177 33.791788 33.762547 33.735826 33.711547
33.690106 33.671375 33.655768 33.643103 33.633816 33.627669 33.625115 33.625857
33.630366 33.638286 33.650101 33.665394 33.684664 33.707431 33.734206 33.764447
33.798674 33.836286 33.877810 33.922584 33.971144 34.022769 34.078000 34.136063
34.197502 34.261491 34.328580 34.397898 34.469994 34.543959 34.620345 34.698209
34.778103 34.859062 34.941635 35.024843 35.109233 35.193820 35.279149 35.364236
35.449626 35.534343 35.618930 35.702432 35.785384 35.866862 35.947394 36.026091
36.103470 36.178689 36.252250 36.323360 36.392506 36.458950 36.523159 36.584453
36.643275 36.699008 36.752064 36.801892 36.848871 36.892516 36.933168 36.970409
37.004535 37.035201 37.062654 37.086616 37.107284 37.124451 37.138258 37.148568
37.155466 37.158883 37.158848 37.155360 37.148390 37.138006 37.124122 37.106875
37.086123 37.062072 37.034524 37.003757 36.969521 36.932162 36.891384 36.847602
36.800475 36.750486 36.697256 36.641336 36.582311 36.520797 36.456351 36.389651
36.320228 36.248821 36.174941 36.099380 36.021633 35.942542 35.861590 35.779664
35.696233 35.612222 35.527096 35.441805 35.355809 35.270082 35.184076 35.098778
35.013638 34.929646 34.846249 34.764431 34.683639 34.604840 34.527482 34.452508
34.379367 34.308970 34.240768 34.175633 34.113018 34.053751 33.997289 33.944409
33.894573 33.848505 33.805671 33.766739 33.731183 33.699612 33.671508 33.647418
33.626836 33.610248 33.597159 33.587995 33.582274 33.580362 33.581792 33.586871
33.595147 33.606872 33.621611 33.639560 33.660305 33.683987 33.710213 33.739075
33.770200 33.803633 33.839023 33.876371 33.915349 33.955915 33.997768 34.040824
34.084809 34.129603 34.174957 34.220718 34.266667
34.644444 34.593096 34.541972 34.491336 34.441372 34.392379 34.344497 34.298059
34.253161 34.210167 34.169123 34.130423 34.094062 34.060464 34.029566 34.001819
33.977105 33.955897 33.938016 33.923961 33.913486 33.907113 33.904530 33.906278
33.911977 33.922185 33.936452 33.955353 33.978364 34.006076 34.037893 34.074416
34.114978 34.160191 34.209315 34.262973 34.320354 34.382088 34.447298 34.516619
34.589113 34.665419 34.744542 34.827122 34.912116 35.000166 35.090186 35.182818
35.276944 35.373205 35.470461 35.569350 35.668718 35.769204 35.869650 35.970692
36.071181 36.171747 36.271263 36.370353 36.467917 36.564573 36.659261 36.752588
36.843541 36.932715 37.019152 37.103430 37.184653 37.263378 37.338777 37.411380
37.480431 37.546428 37.608692 37.667683 37.722799 37.774458 37.822137 37.866208
37.906225 37.942508 37.974693 38.003041 38.027268 38.047574 38.063757 38.075952
38.084037 38.088079 38.088037 38.083913 38.075744 38.063463 38.047191 38.026791
38.002466 37.974014 37.941719 37.905317 37.865173 37.820965 37.773138 37.721319
37.666030 37.606852 37.544386 37.478169 37.408881 37.336022 37.260347 37.181323
37.099778 37.015153 36.928344 36.838770 36.747388 36.653602 36.558424 36.461244
36.363122 36.263439 36.163293 36.062058 35.960862 35.859073 35.757838 35.656522
35.556280 35.456475 35.358260 35.260995 35.165821 35.072098 34.980944 34.891718
34.805505 34.721666 34.641245 34.563604 34.489738 34.419012 34.352366 34.289168
34.230299 34.175132 34.124481 34.077728 34.035619 33.997544 33.964179 33.934924
33.910384 33.889974 33.874224 33.862565 33.855457 33.852346 33.853622 33.858750
33.868053 33.881014 33.897890 33.918186 33.942098 33.969152 33.999484 34.032644
34.068710 34.107259 34.148316 34.191483 34.236733 34.283700 34.332307 34.382217
34.433309 34.485278 34.537960 34.591083 34.644444
35.022222 34.963890 34.905839 34.848306 34.791612 34.735948 34.681675 34.628932
34.578118 34.529317 34.482966 34.439088 34.398155 34.360131 34.325515 34.294208
34.266741 34.242945 34.223378 34.207798 34.196792 34.190043 34.188159 34.190747
34.198436 34.210753 34.228348 34.250664 34.278369 34.310823 34.348708 34.391302
34.439299 34.491894 34.549792 34.612107 34.679552 34.751162 34.827659 34.908002
34.992917 35.081297 35.173870 35.269467 35.368819 35.470704 35.575852 35.682998
35.792872 35.904178 36.017643 36.131950 36.247825 36.363940 36.481019 36.597739
36.714820 36.830954 36.946855 37.061245 37.174830 37.286372 37.396569 37.504230
37.610042 37.712875 37.813397 37.910548 38.004974 38.095690 38.183316 38.266946
38.347170 38.423164 38.495480 38.563384 38.627380 38.686825 38.742173 38.792871
38.839315 38.881043 38.918390 38.950985 38.979094 39.002439 39.021213 39.035232
39.044610 39.049257 39.049210 39.044469 39.034994 39.020878 39.002002 38.978550
38.950329 38.917615 38.880142 38.838278 38.791689 38.740834 38.685318 38.625690
38.561496 38.493378 38.420831 38.344586 38.264092 38.180169 38.092227 38.001170
37.906376 37.808829 37.707881 37.604591 37.498289 37.390104 37.279347 37.167207
37.052984 36.937916 36.821294 36.704396 36.586507 36.468933 36.350952 36.233888
36.117016 36.001662 35.887100 35.774647 35.663576 35.555183 35.448739 35.345510
35.244766 35.147730 35.053674 34.963768 34.877285 34.795338 34.717201 34.643919
34.574773 34.510735 34.451093 34.396741 34.346975 34.302611 34.262956 34.228742
34.199292 34.175254 34.155967 34.141996 34.132698 34.128558 34.128951 34.134285
34.143954 34.158291 34.176713 34.199479 34.226033 34.256561 34.290534 34.328073
34.368676 34.412399 34.458772 34.507791 34.559017 34.612389 34.667502 34.724242
34.782238 34.841327 34.901175 34.961572 35.022222
35.400000 35.334838 35.269969 35.205737 35.142384 35.080299 35.019667 34.960921
34.904189 34.849944 34.798249 34.749618 34.704047 34.662086 34.623660 34.589352
34.559014 34.533262 34.511866 34.495474 34.483773 34.477438 34.476071 34.480372
34.489853 34.505238 34.525946 34.552723 34.584893 34.623221 34.666936 34.716818
34.772003 34.833282 34.899698 34.972052 35.049299 35.132245 35.219759 35.312655
35.409717 35.511765 35.617511 35.727773 35.841200 35.958611 36.078600 36.201984
36.327316 36.455410 36.584788 36.716263 36.848339 36.981828 37.115230 37.249351
37.382706 37.516095 37.648057 37.779388 37.908663 38.036671 38.162039 38.285543
38.405874 38.523791 38.638060 38.749418 38.856711 38.960653 39.060178 39.155965
39.247044 39.334055 39.416125 39.493846 39.566447 39.634467 39.697235 39.755229
39.807883 39.855607 39.897936 39.935207 39.967060 39.993750 40.015022 40.031048
40.041673 40.046985 40.046932 40.041514 40.030781 40.014644 39.993258 39.966448
39.934470 39.897065 39.854594 39.806718 39.753901 39.695730 39.632772 39.564547
39.491724 39.413762 39.331433 39.244140 39.152756 39.056639 38.956759 38.852433
38.744726 38.632923 38.518176 38.399744 38.278862 38.154769 38.028770 37.900089
37.770096 37.638003 37.505231 37.370982 37.236718 37.101635 36.967220 36.832663
36.699464 36.566811 36.436200 36.306816 36.180138 36.055352 35.933905 35.814982
35.699989 35.588109 35.480695 35.376931 35.278106 35.183405 35.094047 35.009220
34.930063 34.855770 34.787394 34.724139 34.666968 34.615095 34.569392 34.529086
34.494956 34.466245 34.443637 34.426395 34.415111 34.409066 34.408764 34.413509
34.423717 34.438715 34.458835 34.483433 34.512758 34.546196 34.583917 34.625339
34.670558 34.719026 34.770768 34.825270 34.882494 34.941961 35.003570 35.066882
35.131738 35.197739 35.264672 35.332180 35.400000
35.777778 35.705931 35.634442 35.563612 35.493851 35.425399 35.358719 35.293986
35.231709 35.171995 35.115399 35.061956 35.012261 34.966272 34.924624 34.887195
34.854657 34.826800 34.804331 34.786952 34.775401 34.769284 34.769370 34.775167
34.787471 34.805688 34.830638 34.861624 34.899487 34.943423 34.994293 35.051187
35.114979 35.184655 35.261103 35.343204 35.431854 35.525837 35.626055 35.731197
35.842169 35.957574 36.078320 36.202932 36.332318 36.464936 36.601692 36.740991
36.883735 37.028287 37.175548 37.323856 37.474105 37.624623 37.776302 37.927473
38.079024 38.229309 38.379207 38.527110 38.673889 38.817987 38.960266 39.099231
39.235732 39.368350 39.497916 39.623099 39.744704 39.861495 39.974247 40.081826
40.184968 40.282646 40.375549 40.462761 40.544916 40.621211 40.692216 40.757243
40.816790 40.870284 40.918143 40.959909 40.995916 41.025820 41.049863 41.067816
41.079825 41.085776 41.085717 41.079648 41.067519 41.049444 41.025274 40.995237
40.959091 40.917176 40.869159 40.815496 40.755768 40.690546 40.619330 40.542807
40.460405 40.372926 40.279734 40.181743 40.078263 39.970318 39.857171 39.739953
39.617889 39.492212 39.362114 39.228924 39.091811 38.952190 38.809211 38.664365
38.516789 38.368039 38.217240 38.066002 37.913440 37.761200 37.608395 37.456691
37.305195 37.155579 37.006947 36.860961 36.716722 36.575866 36.437490 36.303192
36.172067 36.045657 35.923058 35.805746 35.692817 35.585671 35.483405 35.387335
35.296562 35.212309 35.133685 35.061815 34.995818 34.936715 34.883639 34.837509
34.797471 34.764341 34.737283 34.717009 34.702705 34.694980 34.693043 34.697405
34.707301 34.723145 34.744202 34.770792 34.802213 34.838694 34.879568 34.924979
34.974296 35.027584 35.084247 35.144277 35.207117 35.272687 35.340473 35.410329
35.481783 35.554628 35.628438 35.702946 35.777778
36.155556 36.077215 35.999240 35.922059 35.845974 35.771468 35.698776 35.628435
35.560605 35.495877 35.434331 35.376605 35.322699 35.273295 35.228306 35.188455
35.153563 35.124394 35.100670 35.083193 35.071582 35.066673 35.067979 35.076366
35.091239 35.113489 35.142408 35.178913 35.222178 35.273142 35.330862 35.396295
35.468380 35.548087 35.634242 35.727824 35.827547 35.934397 36.046981 36.166290
36.290828 36.421590 36.556990 36.698020 36.843013 36.992961 37.146128 37.303504
37.463299 37.626498 37.791274 37.958609 38.126655 38.296389 38.465960 38.636340
38.805694 38.974988 39.142419 39.308946 39.472817 39.634980 39.793749 39.950060
40.102305 40.251403 40.395840 40.536511 40.672002 40.803181 40.928744 41.049520
41.164322 41.273934 41.377290 41.475117 41.566474 41.652022 41.730946 41.803835
41.869999 41.929942 41.983102 42.029893 42.069878 42.103373 42.130068 42.150174
42.163507 42.170172 42.170107 42.163313 42.149849 42.129607 42.102774 42.069132
42.028994 41.982040 41.928706 41.868577 41.802214 41.729111 41.649955 41.564156
41.472528 41.374408 41.270734 41.160778 41.045603 40.924425 40.798428 40.666780
40.530783 40.389568 40.244547 40.094820 39.941902 39.784870 39.625331 39.462345
39.297598 39.130139 38.961717 38.791374 38.620908 38.449353 38.278543 38.107505
37.938087 37.769312 37.603028 37.438253 37.276814 37.117725 36.962777 36.810981
36.664075 36.521068 36.383632 36.250773 36.124083 36.002570 35.887735 35.778589
35.676534 35.580586 35.492041 35.409922 35.335414 35.267554 35.207412 35.154037
35.108386 35.069525 35.038296 35.013786 34.996723 34.986219 34.982889 34.985873
34.995677 35.011473 35.033661 35.061446 35.095128 35.133948 35.178110 35.226892
35.280410 35.337981 35.399634 35.464730 35.533218 35.604503 35.678458 35.754535
35.832537 35.911965 35.992554 36.073861 36.155556
36.533333 36.448674 36.364454 36.281040 36.198938 36.118442 36.040117 35.964182
35.891256 35.821479 35.755523 35.693437 35.635949 35.583013 35.535403 35.492976
35.456551 35.425882 35.401828 35.384033 35.373397 35.369448 35.373121 35.383827
35.402531 35.428520 35.462790 35.504500 35.554670 35.612332 35.678525 35.752154
35.834272 35.923657 36.021374 36.126076 36.238836 36.358185 36.485202 36.618303
36.758569 36.904310 37.056605 37.213670 37.376581 37.543472 37.715415 37.890475
38.069721 38.251168 38.435877 38.621834 38.810094 38.998628 39.188488 39.377651
39.567163 39.755029 39.942289 40.126993 40.310173 40.489944 40.667327 40.840516
41.010520 41.175628 41.336826 41.492514 41.643650 41.788750 41.928739 42.062258
42.190186 42.311297 42.426415 42.534448 42.636156 42.730585 42.818417 42.898836
42.972441 43.038552 43.097673 43.149263 43.193721 43.230643 43.260318 43.282478
43.297299 43.304645 43.304575 43.297088 43.282124 43.259817 43.229989 43.192909
43.148283 43.096516 43.037206 42.970893 42.897071 42.816417 42.728332 42.633631
42.531627 42.423274 42.307809 42.186323 42.057989 41.924032 41.783569 41.637957
41.486270 41.329989 41.168153 41.002360 40.831622 40.657645 40.479422 40.298755
40.114619 39.928897 39.740557 39.551546 39.360821 39.170377 38.979165 38.789208
38.599452 38.411925 38.225571 38.042405 37.861365 37.684436 37.510551 37.341645
37.176648 37.017428 36.862910 36.714884 36.572271 36.436768 36.307295 36.185445
36.070141 35.962862 35.862538 35.770527 35.685768 35.609496 35.540663 35.480378
35.427608 35.383336 35.346550 35.318106 35.297017 35.284015 35.278140 35.280003
35.288678 35.304655 35.327044 35.356225 35.391342 35.432670 35.479392 35.531681
35.588764 35.650716 35.716811 35.787033 35.860702 35.937717 36.017450 36.099718
36.183948 36.269879 36.356995 36.444966 36.533333
36.911111 36.820359 36.730051 36.640701 36.552678 36.466565 36.382647 36.301571
36.223537 36.149252 36.078823 36.013014 35.951833 35.896100 35.845718 35.801556
35.763408 35.732190 35.707579 35.690535 35.680614 35.678816 35.684568 35.698907
35.721129 35.752302 35.791586 35.840077 35.896796 35.962863 36.037159 36.120820
36.212588 36.313615 36.422503 36.540411 36.665808 36.799861 36.940905 37.090111
37.245693 37.408820 37.577597 37.753188 37.933599 38.119990 38.310285 38.505637
38.703906 38.906236 39.110445 39.317667 39.525697 39.735663 39.945356 40.155900
40.365104 40.574085 40.780693 40.986040 41.188037 41.387785 41.583278 41.775604
41.962854 42.146099 42.323544 42.496235 42.662501 42.823357 42.977265 43.125201
43.265765 43.399880 43.526296 43.645869 43.757497 43.861964 43.958314 44.047246
44.127953 44.201035 44.265837 44.322849 44.371564 44.412358 44.444868 44.469348
44.485583 44.493698 44.493623 44.485355 44.468965 44.444326 44.411651 44.370686
44.321790 44.264585 44.199579 44.126278 44.045336 43.956151 43.859527 43.754765
43.642817 43.522897 43.396107 43.261585 43.120581 42.972171 42.817750 42.656339
42.489477 42.316143 42.138007 41.954019 41.765974 41.572796 41.376393 41.175673
40.972641 40.766192 40.558413 40.348192 40.137675 39.925743 39.714586 39.503077
39.293427 39.084503 38.878514 38.674321 38.474109 38.276734 38.084335 37.895761
37.713091 37.535166 37.363983 37.198380 37.040257 36.888450 36.744748 36.607987
36.479838 36.359139 36.247432 36.143562 36.048938 35.962415 35.885267 35.816362
35.756834 35.705572 35.663572 35.629746 35.604953 35.588133 35.580011 35.579560
35.587373 35.602460 35.625289 35.654908 35.691667 35.734654 35.784107 35.839159
35.899939 35.965628 36.036253 36.111047 36.189941 36.272220 36.357726 36.445800
36.536199 36.628324 36.721852 36.816247 36.911111
37.288889 37.192249 37.096133 37.000984 36.907400 36.815740 36.726675 36.640470
36.557865 36.479028 36.404761 36.335131 36.271000 36.212325 36.160023 36.113936
36.075034 36.043036 36.018962 36.002402 35.994419 35.994470 36.003658 36.021300
36.048535 36.084534 36.130469 36.185361 36.250410 36.324483 36.408803 36.502085
36.605566 36.717811 36.840068 36.970751 37.111115 37.259432 37.416956 37.581823
37.755286 37.935353 38.123273 38.316940 38.517594 38.723032 38.934487 39.149672
39.369813 39.592564 39.819139 40.047157 40.277823 40.508739 40.741106 40.972536
41.204221 41.433807 41.662481 41.887947 42.111382 42.330570 42.546679 42.757591
42.964461 43.165286 43.361201 43.550335 43.733795 43.909850 44.079571 44.241377
44.396290 44.542887 44.682129 44.812750 44.935639 45.049692 45.155711 45.252753
45.341521 45.421233 45.492481 45.554642 45.608188 45.652653 45.688380 45.715059
45.732898 45.741743 45.741661 45.732653 45.714648 45.687798 45.651894 45.607244
45.553503 45.491136 45.419668 45.339721 45.250700 45.153385 45.047072 44.932701
44.809468 44.678474 44.538829 44.391795 44.236408 44.074090 43.903817 43.727166
43.543064 43.353238 43.156578 42.954954 42.747228 42.535398 42.318309 42.098075
41.873524 41.646872 41.416938 41.186016 40.952916 40.719992 40.486048 40.253471
40.021060 39.791212 39.562718 39.337962 39.115729 38.898364 38.684645 38.476857
38.273770 38.077591 37.887081 37.704350 37.528152 37.360485 37.200100 37.048870
36.905543 36.771859 36.646568 36.531266 36.424713 36.328357 36.240968 36.163846
36.095778 36.037912 35.989058 35.950215 35.920219 35.899921 35.888191 35.885736
35.891461 35.905937 35.928107 35.958411 35.995834 36.040690 36.092013 36.149995
36.213720 36.283269 36.357778 36.437219 36.520787 36.608354 36.699173 36.793021
36.889214 36.987442 37.087085 37.187750 37.288889
37.666667 37.564398 37.462655 37.362047 37.263012 37.166237 37.072065 36.981259
36.894060 36.811301 36.733117 36.660406 36.593189 36.532428 36.478021 36.430988
36.391101 36.359435 36.335623 36.320793 36.314436 36.317725 36.330003 36.352482
36.384355 36.426867 36.479051 36.542185 36.615138 36.699214 36.793116 36.898167
37.012906 37.138668 37.273828 37.419730 37.574590 37.739752 37.913280 38.096516
38.287381 38.487209 38.693791 38.908453 39.128867 39.356350 39.588477 39.826552
40.068074 40.314334 40.562779 40.814689 41.067484 41.322432 41.576953 41.832307
42.085938 42.339101 42.589288 42.837751 43.082055 43.323445 43.559585 43.791710
44.017602 44.238478 44.452259 44.660139 44.860185 45.053562 45.238495 45.416105
45.584785 45.745599 45.897111 46.040315 46.173948 46.298918 46.414138 46.520416
46.616837 46.704099 46.781455 46.849479 46.907595 46.956241 46.995007 47.024190
47.043544 47.053219 47.053132 47.043282 47.023750 46.994384 46.955429 46.906585
46.848261 46.780017 46.702425 46.614912 46.518220 46.411651 46.296116 46.170805
46.036804 45.893201 45.741257 45.579975 45.410789 45.232631 45.047106 44.853091
44.652356 44.443735 44.229157 44.007424 43.780615 43.547508 43.310317 43.067806
42.822307 42.572574 42.321036 42.066442 41.811296 41.554340 41.298131 41.041403
40.786739 40.532867 40.282367 40.033958 39.790195 39.549786 39.315233 39.085233
38.862214 38.644861 38.435505 38.232823 38.039031 37.852797 37.676207 37.507925
37.349895 37.200780 37.062373 36.933340 36.815316 36.706975 36.609793 36.522456
36.446278 36.379964 36.324666 36.279115 36.244300 36.218985 36.204003 36.198151
36.202113 36.214726 36.236526 36.266396 36.304734 36.350470 36.403870 36.463916
36.530748 36.603405 36.681907 36.765353 36.853653 36.945965 37.042096 37.141271
37.243196 37.347167 37.452797 37.559454 37.666667
38.044444 37.936779 37.829728 37.723813 37.619738 37.517924 37.419157 37.323755
37.232581 37.145841 37.064470 36.988558 36.919108 36.856084 36.800554 36.752347
36.712593 36.680980 36.658693 36.645272 36.641952 36.648118 36.665053 36.691976
36.730212 36.778813 36.839136 36.910063 36.992977 37.086585 37.192292 37.308626
37.437008 37.575789 37.726399 37.887014 38.059067 38.240564 38.432936 38.634029
38.845265 39.064342 39.292669 39.527812 39.771166 40.020179 40.276231 40.536678
40.802883 41.072129 41.345769 41.621041 41.899285 42.177722 42.457684 42.736405
43.015208 43.291371 43.566210 43.837072 44.105270 44.368245 44.627304 44.880007
45.127649 45.367930 45.602128 45.828100 46.047096 46.257140 46.459448 46.652220
46.836619 47.011031 47.176553 47.331754 47.477652 47.613003 47.738726 47.853763