<?xml version="1.0"?>
<VTKFile type="ImageData" version="0.1" byte_order="LittleEndian">
  <ImageData WholeExtent="0 180 0 180 0 0" Origin="0.0 0.0 0.0" Spacing="0.05 0.05 1">
    <Piece Extent="0 180 0 180 0 0">
      <PointData Scalars="Temperature">
        <DataArray type="Float32" Name="Temperature" format="ascii">
32.000000 32.000000 32.000000 32.000000 32.000000 32.000000 32.000000 32.000000 32.000000 32.000000 32.000000 32.000000 32.000000 32.000000 32.000000 32.000000 32.000000 32.000000 32.000000 32.000000 32.000000 32.000000 32.000000 32.000000 32.000000 32.000000 32.000000 32.000000 32.000000 32.000000 32.000000 32.000000 32.000000 32.000000 32.000000 32.000000 32.000000 32.000000 32.000000 32.000000 32.000000 32.000000 32.000000 32.000000 32.000000 32.000000 32.000000 32.000000 32.000000 32.000000 32.000000 32.000000 32.000000 32.000000 32.000000 32.000000 32.000000 32.000000 32.000000 32.000000 32.000000 32.000000 32.000000 32.000000 32.000000 32.000000 32.000000 32.000000 32.000000 32.000000 32.000000 32.000000 32.000000 32.000000 32.000000 32.000000 32.000000 32.000000 32.000000 32.000000 32.000000 32.000000 32.000000 32.000000 32.000000 32.000000 32.000000 32.000000 32.000000 32.000000 32.000000 32.000000 32.000000 32.000000 32.000000 32.000000 32.000000 32.000000 32.000000 32.000000 32.000000 32.000000 32.000000 32.000000 32.000000 32.000000 32.000000 32.000000 32.000000 32.000000 32.000000 32.000000 32.000000 32.000000 32.000000 32.000000 32.000000 32.000000 32.000000 32.000000 32.000000 32.000000 32.000000 32.000000 32.000000 32.000000 32.000000 32.000000 32.000000 32.000000 32.000000 32.000000 32.000000 32.000000 32.000000 32.000000 32.000000 32.000000 32.000000 32.000000 32.000000 32.000000 32.000000 32.000000 32.000000 32.000000 32.000000 32.000000 32.000000 32.000000 32.000000 32.000000 32.000000 32.000000 32.000000 32.000000 32.000000 32.000000 32.000000 32.000000 32.000000 32.000000 32.000000 32.000000 32.000000 32.000000 32.000000 32.000000 32.000000 32.000000 32.000000 32.000000 32.000000 32.000000 32.000000 32.000000 32.000000 32.000000 32.000000 32.000000 32.000000
32.377778 32.405727 32.433683 32.461654 32.489646 32.517668 32.545725 32.573826 32.601974 32.630179 32.658443 32.686775 32.715176 32.743654 32.772210 32.800850 32.829573 32.858386 32.887285 32.916277 32.945354 32.974523 33.003775 33.033114 33.062530 33.092025 33.121588 33.151218 33.180902 33.210637 33.240409 33.270213 33.300031 33.329859 33.359675 33.389472 33.419229 33.448935 33.478567 33.508114 33.537550 33.566863 33.596024 33.625020 33.653822 33.682416 33.710770 33.738869 33.766683 33.794195 33.821373 33.848201 33.874648 33.900697 33.926316 33.951490 33.976188 34.000395 34.024081 34.047231 34.069817 34.091826 34.113232 34.134021 34.154171 34.173669 34.192493 34.210635 34.228073 34.244799 34.260797 34.276058 34.290569 34.304322 34.317305 34.329514 34.340937 34.351571 34.361406 34.370442 34.378669 34.386087 34.392689 34.398474 34.403438 34.407581 34.410900 34.413393 34.415060 34.415900 34.415912 34.415098 34.413457 34.410990 34.407699 34.403584 34.398648 34.392893 34.386322 34.378938 34.370745 34.361747 34.351950 34.341357 34.329978 34.317816 34.304882 34.291182 34.276728 34.261526 34.245592 34.228933 34.211567 34.193502 34.174759 34.155347 34.135289 34.114596 34.093293 34.071393 34.048921 34.025892 34.002334 33.978262 33.953706 33.928681 33.903219 33.877335 33.851061 33.824414 33.797427 33.770114 33.742509 33.714627 33.686501 33.658145 33.629591 33.600854 33.571962 33.542930 33.513786 33.484542 33.455225 33.425845 33.396428 33.366981 33.337529 33.308078 33.278649 33.249248 33.219892 33.190585 33.161344 33.132170 33.103078 33.074066 33.045148 33.016320 32.987594 32.958965 32.930441 32.902017 32.873700 32.845482 32.817368 32.789351 32.761431 32.733603 32.705865 32.678208 32.650633 32.623129 32.595693 32.568316 32.540995 32.513719 32.486484 32.459279 32.432099 32.404934 32.377778
32.755556 32.811458 32.867375 32.923322 32.979313 33.035360 33.091482 33.147686 33.203991 33.260404 33.316941 33.373608 33.430420 33.487380 33.544503 33.601788 33.659247 33.716877 33.774690 33.832677 33.890848 33.949191 34.007713 34.066397 34.125249 34.184247 34.243393 34.302661 34.362051 34.421532 34.481100 34.540719 34.600381 34.660048 34.719707 34.779315 34.838857 34.898284 34.957579 35.016688 35.075591 35.134232 35.192587 35.250596 35.308234 35.365438 35.422180 35.478397 35.534058 35.589100 35.643490 35.697164 35.750090 35.802205 35.853475 35.903840 35.953266 36.001695 36.049095 36.095410 36.140610 36.184641 36.227478 36.269068 36.309390 36.348396 36.386066 36.422357 36.457251 36.490711 36.522722 36.553251 36.582285 36.609796 36.635774 36.660195 36.683050 36.704320 36.724000 36.742072 36.758533 36.773369 36.786577 36.798149 36.808081 36.816367 36.823006 36.827993 36.831327 36.833008 36.833033 36.831404 36.828121 36.823187 36.816602 36.808372 36.798497 36.786986 36.773840 36.759070 36.742679 36.724680 36.705078 36.683891 36.661123 36.636796 36.610917 36.583512 36.554590 36.524181 36.492297 36.458972 36.424221 36.388083 36.350576 36.311743 36.271604 36.230207 36.187575 36.143761 36.098790 36.052718 36.005573 35.957413 35.908270 35.858204 35.807248 35.755463 35.702883 35.649572 35.595563 35.540920 35.485676 35.429895 35.373609 35.316880 35.259739 35.202247 35.144431 35.086351 35.028031 34.969528 34.910863 34.852089 34.793225 34.734320 34.675388 34.616475 34.557591 34.498777 34.440041 34.381418 34.322913 34.264557 34.206351 34.148321 34.090465 34.032804 33.975333 33.918070 33.861006 33.804155 33.747505 33.691066 33.634825 33.578786 33.522936 33.467276 33.411789 33.356474 33.301313 33.246302 33.191422 33.136667 33.082017 33.027462 32.972984 32.918572 32.864206 32.809873 32.755556
33.133333 33.217199 33.301087 33.385020 33.469017 33.553104 33.637297 33.721620 33.806088 33.890726 33.975543 34.060564 34.145795 34.231259 34.316956 34.402909 34.489113 34.575588 34.662323 34.749336 34.836611 34.924161 35.011965 35.100031 35.188332 35.276872 35.365618 35.454568 35.543682 35.632955 35.722339 35.811823 35.901352 35.990912 36.080439 36.169914 36.259268 36.348476 36.437462 36.526196 36.614597 36.702631 36.790212 36.877301 36.963808 37.049690 37.134855 37.219257 37.302801 37.385440 37.467077 37.547663 37.627104 37.705349 37.782305 37.857922 37.932110 38.004820 38.075965 38.145500 38.213341 38.279447 38.343739 38.406179 38.466694 38.525252 38.581785 38.636264 38.688631 38.738859 38.786896 38.832721 38.876289 38.917583 38.956563 38.993217 39.027510 39.059434 39.088961 39.116084 39.140781 39.163046 39.182863 39.200228 39.215129 39.227564 39.237524 39.245007 39.250010 39.252531 39.252569 39.250125 39.245200 39.237795 39.227917 39.215565 39.200751 39.183475 39.163752 39.141586 39.116994 39.089981 39.060571 39.028771 38.994609 38.958095 38.919264 38.878128 38.834729 38.789083 38.741237 38.691211 38.639061 38.584811 38.528522 38.470222 38.409981 38.347831 38.283847 38.218067 38.150570 38.081398 38.010636 37.938329 37.864567 37.789398 37.712913 37.635162 37.556241 37.476199 37.395133 37.313093 37.230175 37.146427 37.061945 36.976776 36.891014 36.804701 36.717929 36.630736 36.543209 36.455384 36.367343 36.279116 36.190779 36.102357 36.013921 35.925491 35.837130 35.748853 35.660717 35.572731 35.484946 35.397364 35.310029 35.222940 35.136133 35.049601 34.963375 34.877444 34.791831 34.706520 34.621530 34.536842 34.452466 34.368382 34.284595 34.201080 34.117839 34.034845 33.952094 33.869559 33.787230 33.705080 33.623095 33.541248 33.459522 33.377890 33.296331 33.214820 33.133333
33.511111 33.622955 33.734828 33.846760 33.958782 34.070919 34.183204 34.295657 34.408312 34.521185 34.634309 34.747695 34.861374 34.975352 35.089658 35.204291 35.319278 35.434610 35.550311 35.666365 35.782791 35.899565 36.016703 36.134170 36.251978 36.370082 36.488490 36.607147 36.726053 36.845146 36.964418 37.083799 37.203273 37.322761 37.442240 37.561621 37.680875 37.799905 37.918674 38.037078 38.155073 38.272548 38.389453 38.505671 38.621148 38.735760 38.849449 38.962089 39.073618 39.183907 39.292892 39.400444 39.506497 39.610925 39.713662 39.814582 39.913622 40.010661 40.105637 40.198436 40.289000 40.377219 40.463042 40.546366 40.627144 40.705283 40.780742 40.853435 40.923328 40.990345 41.054456 41.115595 41.173737 41.228827 41.280844 41.329740 41.375500 41.418084 41.457482 41.493660 41.526611 41.556308 41.582747 41.605908 41.625788 41.642372 41.655659 41.665640 41.672313 41.675676 41.675727 41.672467 41.665896 41.656021 41.642842 41.626369 41.606604 41.583563 41.557250 41.527684 41.494872 41.458842 41.419599 41.377180 41.331595 41.282886 41.231067 41.176189 41.118270 41.057371 40.993514 40.926768 40.857163 40.784775 40.709642 40.631847 40.551434 40.468498 40.383085 40.295299 40.205194 40.112880 40.018414 39.921913 39.823440 39.723117 39.621009 39.517241 39.411879 39.305054 39.196830 39.087339 38.976644 38.864877 38.752098 38.638438 38.523953 38.408770 38.292942 38.176589 38.059760 37.942569 37.825059 37.707337 37.589438 37.471462 37.353438 37.235457 37.117541 36.999770 36.882161 36.764784 36.647649 36.530817 36.414290 36.298121 36.182305 36.066885 35.951850 35.837236 35.723024 35.609242 35.495868 35.382919 35.270370 35.158230 35.046470 34.935093 34.824066 34.713385 34.603016 34.492948 34.383145 34.273592 34.164252 34.055104 33.946112 33.837250 33.728482 33.619781 33.511111
33.888889 34.028730 34.168607 34.308560 34.448622 34.588835 34.729226 34.869838 35.010693 35.151835 35.293279 35.435067 35.577209 35.719744 35.862674 36.006035 36.149820 36.294064 36.438748 36.583903 36.729501 36.875566 37.022061 37.169003 37.316344 37.464093 37.612193 37.760644 37.909377 38.058384 38.207585 38.356964 38.506427 38.655950 38.805429 38.954830 39.104038 39.253010 39.401620 39.549819 39.697470 39.844515 39.990811 40.136291 40.280806 40.424283 40.566567 40.707581 40.847165 40.985240 41.121644 41.256295 41.389032 41.519772 41.648357 41.774706 41.898663 42.020150 42.139019 42.255194 42.368536 42.478973 42.586376 42.690680 42.791764 42.889572 42.983993 43.074978 43.162428 43.246302 43.326511 43.403023 43.475760 43.544695 43.609764 43.670944 43.728181 43.781460 43.830736 43.875996 43.917206 43.954356 43.987420 44.016393 44.041252 44.061997 44.078612 44.091096 44.099441 44.103646 44.103710 44.099632 44.091417 44.079064 44.062584 44.041978 44.017262 43.988440 43.955533 43.918547 43.877511 43.832434 43.783353 43.730280 43.673262 43.612315 43.547494 43.478822 43.406366 43.330154 43.250262 43.166727 43.079636 42.989033 42.895018 42.797641 42.697014 42.593194 42.486304 42.376408 42.263640 42.148069 42.029839 41.909025 41.785777 41.660174 41.532374 41.402458 41.270587 41.136844 41.001391 40.864313 40.725772 40.585848 40.444703 40.302415 40.159141 40.014954 39.870005 39.724362 39.578169 39.431486 39.284450 39.137112 38.989599 38.841954 38.694295 38.546654 38.399138 38.251772 38.104651 37.957789 37.811270 37.665100 37.519352 37.374022 37.229171 37.084788 36.940923 36.797557 36.654730 36.512414 36.370640 36.229375 36.088638 35.948393 35.808649 35.669365 35.530541 35.392134 35.254136 35.116501 34.979214 34.842229 34.705521 34.569046 34.432774 34.296660 34.160669 34.024758 33.888889
34.266667 34.434527 34.602434 34.770429 34.938561 35.106867 35.275398 35.444186 35.613281 35.782707 35.952516 36.122723 36.293378 36.464487 36.636097 36.808204 36.980853 37.154028 37.327768 37.502046 37.676895 37.852278 38.028218 38.204664 38.381634 38.559064 38.736960 38.915246 39.093919 39.272888 39.452139 39.631567 39.811150 39.990767 40.170385 40.349870 40.529177 40.708162 40.886767 41.064836 41.242302 41.418998 41.594848 41.769675 41.943395 42.115825 42.286873 42.456350 42.624160 42.790111 42.954103 43.115942 43.275528 43.432668 43.587262 43.739122 43.888151 44.034165 44.177071 44.316696 44.452951 44.585673 44.714782 44.840124 44.961629 45.079155 45.192641 45.301960 45.407059 45.507824 45.604211 45.696123 45.783522 45.866324 45.944500 46.017980 46.086742 46.150726 46.209917 46.264267 46.313765 46.358373 46.398085 46.432871 46.462727 46.487632 46.507586 46.522573 46.532595 46.537643 46.537720 46.532824 46.522958 46.508128 46.488336 46.463597 46.433913 46.399307 46.359784 46.315374 46.266084 46.211954 46.152996 46.089259 46.020760 45.947560 45.869680 45.787195 45.700132 45.608580 45.512574 45.412214 45.307548 45.198687 45.085688 44.968678 44.847722 44.722960 44.594466 44.462395 44.326827 44.187928 44.045788 43.900581 43.752404 43.601439 43.447786 43.291636 43.133088 42.972339 42.809488 42.644734 42.478175 42.310006 42.140324 41.969322 41.797090 41.623815 41.449581 41.274568 41.098852 40.922602 40.745886 40.568863 40.391588 40.214211 40.036776 39.859419 39.682173 39.505160 39.328403 39.152011 38.975994 38.800448 38.625372 38.450847 38.276865 38.103490 37.930706 37.758565 37.587039 37.416170 37.245923 37.076324 36.907334 36.738969 36.571181 36.403976 36.237304 36.071158 35.905485 35.740271 35.575459 35.411027 35.246918 35.083101 34.919520 34.756137 34.592897 34.429758 34.266667
34.644444 34.840353 35.036314 35.232384 35.428608 35.625046 35.821738 36.018744 36.216098 36.413859 36.612051 36.810733 37.009920 37.209667 37.409977 37.610904 37.812438 38.014626 38.217446 38.420938 38.625068 38.829867 39.035286 39.241347 39.447986 39.655215 39.862954 40.071205 40.279870 40.488940 40.698300 40.907930 41.117698 41.327571 41.537401 41.747141 41.956630 42.165806 42.374494 42.582620 42.789996 42.996537 43.202041 43.406414 43.609444 43.811029 44.010949 44.209094 44.405239 44.599269 44.790957 44.980186 45.166727 45.350463 45.531170 45.708732 45.882929 46.053651 46.220686 46.383930 46.543183 46.698347 46.849236 46.995761 47.137752 47.275127 47.407734 47.535503 47.658296 47.776054 47.888656 47.996054 48.098144 48.194887 48.286193 48.372034 48.452335 48.527075 48.596191 48.659671 48.717463 48.769560 48.815922 48.856544 48.891398 48.920480 48.943773 48.961273 48.972971 48.978866 48.978955 48.973238 48.961721 48.944404 48.921301 48.892412 48.857759 48.817347 48.771204 48.719338 48.661789 48.598566 48.529721 48.455270 48.375276 48.289760 48.198800 48.102426 48.000730 47.893749 47.781592 47.664307 47.542018 47.414784 47.282745 47.145972 47.004621 46.858773 46.708601 46.554196 46.395745 46.233348 46.067206 45.897427 45.724222 45.547705 45.368096 45.185514 45.000184 44.812227 44.621871 44.429235 44.234550 44.037931 43.839607 43.639686 43.438393 43.235830 43.032212 42.827634 42.622300 42.416295 42.209812 42.002922 41.795807 41.588525 41.381243 41.174006 40.966965 40.760153 40.553704 40.347639 40.142074 39.937018 39.732572 39.528731 39.325580 39.123102 38.921368 38.720349 38.520100 38.320585 38.121842 37.923827 37.726565 37.530005 37.334157 37.138965 36.944428 36.750485 36.557123 36.364279 36.171928 35.980005 35.788478 35.597280 35.406371 35.215687 35.025177 34.834781 34.644444
35.022222 35.246210 35.470261 35.694431 35.918788 36.143382 36.368281 36.593529 36.819194 37.045311 37.271947 37.499126 37.726914 37.955322 38.184412 38.414182 38.644689 38.875917 39.107916 39.340654 39.574174 39.808427 40.043445 40.279164 40.515604 40.752682 40.990409 41.228681 41.467496 41.706731 41.946371 42.186275 42.426411 42.666621 42.906857 43.146943 43.386817 43.626285 43.865270 44.103561 44.341070 44.577569 44.812958 45.046997 45.279573 45.510438 45.739468 45.966408 46.191127 46.413365 46.632987 46.849732 47.063462 47.273919 47.480964 47.684346 47.883929 48.079470 48.270840 48.457806 48.640248 48.817947 48.990793 49.158583 49.321219 49.478515 49.630386 49.776664 49.917277 50.052076 50.181003 50.303926 50.420799 50.531512 50.636026 50.734248 50.826153 50.911661 50.990755 51.063372 51.129500 51.189089 51.242132 51.288592 51.328466 51.361726 51.388371 51.408384 51.421765 51.428506 51.428608 51.422070 51.408895 51.389092 51.362662 51.329624 51.289980 51.243759 51.190966 51.131640 51.065790 50.993466 50.914682 50.829504 50.737949 50.640099 50.535980 50.425690 50.309265 50.186819 50.058401 49.924142 49.784104 49.638438 49.487215 49.330609 49.168703 49.001687 48.829660 48.652828 48.471302 48.285304 48.094955 47.900491 47.702041 47.499854 47.294063 47.084926 46.872580 46.657288 46.439187 46.218544 45.995492 45.770297 45.543089 45.314127 45.083536 44.851566 44.618332 44.384076 44.148901 43.913035 43.676568 43.439716 43.202553 42.965278 42.727952 42.490756 42.253736 42.017054 41.780741 41.544940 41.309668 41.075050 40.841085 40.607882 40.375426 40.143807 39.912998 39.683069 39.453984 39.225795 38.998455 38.772000 38.546375 38.321600 38.097611 37.874414 37.651942 37.430185 37.209071 36.988578 36.768633 36.549202 36.330209 36.111612 35.893335 35.675327 35.457513 35.239835 35.022222
35.400000 35.652103 35.904275 36.156589 36.409107 36.661905 36.915037 37.168582 37.422584 37.677120 37.932225 38.187974 38.444388 38.701539 38.959435 39.218142 39.477652 39.738026 39.999237 40.261339 40.524286 40.788123 41.052786 41.318306 41.584599 41.851685 42.119459 42.387925 42.656958 42.926546 43.196544 43.466923 43.737515 44.008277 44.279018 44.549677 44.820045 45.090044 45.359445 45.628152 45.895920 46.162639 46.428047 46.692019 46.954282 47.214699 47.472985 47.728994 47.982435 48.233155 48.480860 48.725391 48.966456 49.203896 49.437421 49.666877 49.891980 50.112582 50.328411 50.539326 50.745071 50.945516 51.140420 51.329667 51.513037 51.690426 51.861636 52.026576 52.185071 52.337045 52.482344 52.620907 52.752601 52.877379 52.995128 53.105812 53.209338 53.305680 53.394763 53.476569 53.551037 53.618159 53.677886 53.730213 53.775107 53.812564 53.842562 53.865099 53.880163 53.887754 53.887868 53.880506 53.865674 53.843372 53.813616 53.776408 53.731773 53.679714 53.620269 53.553443 53.479286 53.397809 53.309076 53.213103 53.109971 52.999705 52.882402 52.758098 52.626908 52.488882 52.344155 52.192788 52.034940 51.870686 51.700207 51.523592 51.341044 51.152667 50.958685 50.759215 50.554501 50.344674 50.129994 49.910603 49.686776 49.458662 49.226550 48.990592 48.751086 48.508187 48.262196 48.013269 47.761705 47.507657 47.251422 46.993145 46.733115 46.471470 46.208487 45.944291 45.679148 45.413169 45.146603 44.879545 44.612228 44.344730 44.077264 43.809892 43.542807 43.276052 43.009799 42.744074 42.479029 42.214672 41.951133 41.688406 41.426598 41.165689 40.905765 40.646793 40.388838 40.131854 39.875889 39.620885 39.366873 39.113785 38.861635 38.610347 38.359920 38.110273 37.861388 37.613182 37.365623 37.118627 36.872148 36.626102 36.380434 36.135060 35.889915 35.644919 35.400000
35.777778 36.058034 36.338370 36.618860 36.899588 37.180619 37.462042 37.743911 38.026315 38.309298 38.592946 38.877291 39.162418 39.448340 39.735140 40.022814 40.311438 40.600991 40.891539 41.183043 41.475558 41.769025 42.063486 42.358860 42.655176 42.952330 43.250337 43.549068 43.848521 44.148544 44.449117 44.750065 45.051347 45.352765 45.654260 45.955610 46.256736 46.557394 46.857486 47.156749 47.455065 47.752152 48.047877 48.341940 48.634194 48.924326 49.212177 49.497423 49.779896 50.059268 50.335362 50.607848 50.876549 51.141137 51.401434 51.657121 51.908025 52.153835 52.394388 52.629388 52.858683 53.081995 53.299185 53.509996 53.714306 53.911880 54.102611 54.286290 54.462827 54.632037 54.793847 54.948098 55.094730 55.233608 55.364689 55.487859 55.603086 55.710277 55.809412 55.900415 55.983275 56.057932 56.124380 56.182575 56.232515 56.274169 56.307535 56.332596 56.349351 56.357791 56.357918 56.349732 56.333234 56.308435 56.275336 56.233959 56.184305 56.126408 56.060272 55.985944 55.903430 55.812793 55.714045 55.607265 55.492474 55.369769 55.239183 55.100830 54.954758 54.801104 54.639928 54.471394 54.295574 54.112659 53.922738 53.726025 53.522627 53.312783 53.096616 52.874388 52.646238 52.412447 52.173170 51.928705 51.679219 51.425024 51.166295 50.903355 50.636384 50.365714 50.091521 49.814143 49.533755 49.250689 48.965115 48.677362 48.387588 48.096111 47.803080 47.508797 47.213397 46.917167 46.620222 46.322833 46.025096 45.727260 45.429404 45.131753 44.834367 44.537447 44.241034 43.945306 43.650284 43.356121 43.062819 42.770510 42.479178 42.188930 41.899735 41.611677 41.324710 41.038897 40.754179 40.470598 40.188084 39.906659 39.626245 39.346845 39.068373 38.790816 38.514082 38.238143 37.962903 37.688320 37.414297 37.140779 36.867669 36.594903 36.322385 36.050039 35.777778
36.155556 36.464007 36.772545 37.081261 37.390232 37.699555 38.009298 38.319558 38.630392 38.941898 39.254118 39.567148 39.881015 40.195810 40.511544 40.828301 41.146072 41.464934 41.784858 42.105909 42.428037 42.751294 43.075606 43.401013 43.727414 44.054833 44.383146 44.712356 45.042313 45.373003 45.704249 46.036015 46.368097 46.700440 47.032812 47.365137 47.697158 48.028775 48.359710 48.689842 49.018868 49.346650 49.672864 49.997353 50.319780 50.639970 50.957572 51.272401 51.584096 51.892464 52.197137 52.497919 52.794444 53.086512 53.373763 53.656002 53.932877 54.204201 54.469637 54.729008 54.981997 55.228441 55.468045 55.700662 55.926022 56.143997 56.354343 56.556951 56.751606 56.938217 57.116598 57.286676 57.448290 57.601387 57.745831 57.881582 58.008530 58.126648 58.235846 58.336108 58.427362 58.509601 58.582771 58.646868 58.701853 58.747726 58.784460 58.812057 58.830502 58.839796 58.839935 58.830920 58.812758 58.785448 58.749008 58.703438 58.648768 58.584999 58.512172 58.430294 58.339419 58.239559 58.130787 58.013120 57.886653 57.751411 57.607511 57.454992 57.293994 57.124571 56.946888 56.761019 56.567154 56.365384 56.155930 55.938901 55.714544 55.482990 55.244513 54.999259 54.747530 54.489488 54.225455 53.955611 53.680295 53.399696 53.114171 52.823915 52.529294 52.230508 51.927927 51.621751 51.312350 50.999918 50.684822 50.367246 50.047549 49.725904 49.402653 49.077955 48.752138 48.425340 48.097870 47.769846 47.441555 47.113094 46.784726 46.456527 46.128732 45.801396 45.474728 45.148762 44.823680 44.499495 44.176361 43.854272 43.533356 43.213588 42.895072 42.577765 42.261745 41.946955 41.633449 41.321158 41.010114 40.700235 40.391532 40.083915 39.777377 39.471818 39.167214 38.863461 38.560518 38.258280 37.956689 37.655640 37.355063 37.054854 36.754932 36.455196 36.155556
36.533333 36.870023 37.206812 37.543790 37.881062 38.218709 38.556839 38.895521 39.234862 39.574920 39.915801 40.257544 40.600254 40.943953 41.288737 41.634610 41.981661 42.329871 42.679319 43.029963 43.381869 43.734970 44.089319 44.444821 44.801511 45.159269 45.518110 45.877886 46.238591 46.600048 46.962230 47.324929 47.688095 48.051491 48.415044 48.778488 49.141725 49.504462 49.866577 50.227752 50.587841 50.946503 51.303572 51.658685 52.011659 52.362112 52.709847 53.054469 53.395769 53.733345 54.066980 54.396269 54.720990 55.040745 55.355311 55.664299 55.967492 56.264514 56.555161 56.839073 57.116061 57.385789 57.648086 57.902641 58.149302 58.387790 58.617974 58.839604 59.052571 59.256657 59.451774 59.637734 59.814471 59.981825 60.139747 60.288106 60.426868 60.555926 60.675261 60.784787 60.884494 60.974316 61.054249 61.124246 61.184305 61.234394 61.274515 61.304646 61.324789 61.334936 61.335087 61.325244 61.305408 61.275590 61.235790 61.186032 61.126315 61.056675 60.977116 60.887686 60.788393 60.679305 60.560434 60.431867 60.293628 60.145825 59.988495 59.821772 59.645706 59.460460 59.266103 59.062827 58.850720 58.630006 58.400793 58.163337 57.917769 57.664374 57.403305 57.134876 56.859261 56.576800 56.287683 55.992275 55.690781 55.383584 55.070898 54.753122 54.430475 54.103365 53.772012 53.436827 53.098028 52.756022 52.411019 52.063420 51.713422 51.361413 51.007575 50.652279 50.295688 49.938152 49.579815 49.221000 48.861831 48.502604 48.143418 47.784543 47.426053 47.068189 46.711001 46.354700 45.999313 45.645022 45.291829 44.939889 44.589183 44.239837 43.891812 43.545207 43.199964 42.856157 42.513712 42.172677 41.832967 41.494605 41.157494 40.821636 40.486925 40.153342 39.820776 39.489188 39.158463 38.828546 38.499320 38.170714 37.842612 37.514931 37.187556 36.860393 36.533333
36.911111 37.276087 37.641168 38.006465 38.372073 38.738110 39.104659 39.471838 39.839717 40.208415 40.577986 40.948546 41.320129 41.692848 42.066716 42.441839 42.818207 43.195916 43.574932 43.955338 44.337075 44.720209 45.104655 45.490462 45.877514 46.265841 46.655299 47.045892 47.437447 47.829945 48.223180 48.617109 49.011492 49.406261 49.801145 50.196048 50.590668 50.984884 51.378363 51.770959 52.162310 52.552246 52.940382 53.326524 53.710268 54.091399 54.469497 54.844333 55.215472 55.582677 55.945508 56.303718 56.656869 57.004715 57.346821 57.682947 58.012672 58.335762 58.651816 58.960615 59.261780 59.555112 59.840258 60.117040 60.385139 60.644398 60.894532 61.135409 61.366778 61.588533 61.800455 62.002462 62.194370 62.376117 62.547550 62.708626 62.859222 62.999309 63.128789 63.247648 63.355807 63.453263 63.539957 63.615890 63.681019 63.735348 63.778850 63.811529 63.833369 63.844372 63.844536 63.833861 63.812353 63.780013 63.736857 63.682885 63.618126 63.542580 63.456290 63.359259 63.251547 63.133161 63.004183 62.864628 62.714598 62.554123 62.383331 62.202266 62.011085 61.809850 61.598752 61.377873 61.147436 60.907549 60.658467 60.400324 60.133411 59.857884 59.574068 59.282143 58.982465 58.675236 58.360840 58.039497 57.711615 57.377426 57.037358 56.691654 56.340752 55.984900 55.624543 55.259926 54.891497 54.519494 54.144357 53.766316 53.385798 53.003016 52.618382 52.232090 51.844531 51.455875 51.066491 50.676522 50.286310 49.895974 49.505823 49.115951 48.726636 48.337943 47.950121 47.563208 47.177417 46.792764 46.409431 46.027406 45.646841 45.267703 44.890113 44.514016 44.139504 43.766506 43.395084 43.025151 42.656744 42.289762 41.924216 41.559996 41.197089 40.835377 40.474826 40.115312 39.756782 39.399108 39.042221 38.685992 38.330337 37.975127 37.620266 37.265630 36.911111
37.288889 37.682196 38.075623 38.469277 38.863286 39.257747 39.652788 40.048496 40.445000 40.842369 41.240730 41.640136 42.040709 42.442480 42.845566 43.249973 43.655811 44.063059 44.471815 44.882032 45.293791 45.707018 46.121775 46.537958 46.955609 47.374591 47.794923 48.216435 48.639123 49.062780 49.487376 49.912670 50.338602 50.764898 51.191469 51.618005 52.044388 52.470274 52.895517 53.319743 53.742775 54.164210 54.583848 55.001260 55.416220 55.828281 56.237197 56.642503 57.043941 57.441035 57.833517 58.220908 58.602936 58.979125 59.349206 59.712712 60.069382 60.418767 60.760619 61.094512 61.420217 61.737336 62.045663 62.344833 62.634664 62.914829 63.185174 63.445408 63.695404 63.934912 64.163830 64.381946 64.589184 64.785366 64.970439 65.144258 65.306790 65.457918 65.597623 65.725816 65.842490 65.947575 66.041074 66.122936 66.193165 66.251728 66.298631 66.333852 66.357397 66.369256 66.369431 66.357926 66.334737 66.299880 66.253349 66.195170 66.125338 66.043892 65.950827 65.846198 65.730005 65.602322 65.463155 65.312600 65.150677 64.977505 64.793120 64.597672 64.391215 64.173932 63.945898 63.707334 63.458339 63.199172 62.929959 62.650996 62.362440 62.064622 61.757726 61.442121 61.118017 60.785816 60.445748 60.098245 59.743557 59.382138 59.014251 58.640369 58.260761 57.875910 57.486090 57.091785 56.693264 56.291009 55.885280 55.476549 55.065060 54.651269 54.235401 53.817891 53.398941 52.978960 52.558124 52.136814 51.715176 51.293561 50.872085 50.451066 50.030589 49.610938 49.192169 48.774530 48.358049 47.942939 47.529200 47.117010 46.706346 46.297350 45.889977 45.484335 45.080358 44.678126 44.277551 43.878685 43.481425 43.085793 42.691675 42.299068 41.907846 41.517982 41.129342 40.741880 40.355456 39.970002 39.585379 39.201500 38.818227 38.435458 38.053057 37.670911 37.288889
37.666667 38.088356 38.510171 38.932244 39.354689 39.777644 40.201212 40.625532 41.050690 41.476827 41.904009 42.332374 42.761967 43.192921 43.625258 44.059101 44.494447 44.931406 45.369947 45.810168 46.252006 46.695540 47.140677 47.587475 48.035806 48.485706 48.937012 49.389733 49.843670 50.298802 50.754894 51.211897 51.669534 52.127727 52.586161 53.044725 53.503068 53.961045 54.418271 54.874569 55.329519 55.782917 56.234311 56.683469 57.129916 57.573394 58.013407 58.449680 58.881701 59.309181 59.731601 60.148664 60.559851 60.964864 61.363191 61.754539 62.138413 62.514530 62.882418 63.241814 63.592273 63.933554 64.265249 64.587145 64.898869 65.200240 65.490926 65.770777 66.039503 66.296986 66.542977 66.777386 67.000007 67.210775 67.409520 67.596203 67.770686 67.932947 68.082882 68.220480 68.345663 68.458431 68.558725 68.646552 68.721872 68.784692 68.834987 68.872765 68.898010 68.910728 68.910916 68.898575 68.873711 68.836321 68.786424 68.724014 68.649120 68.561735 68.461906 68.349626 68.224958 68.087903 67.938546 67.776896 67.603064 67.417074 67.219065 67.009082 66.787298 66.553778 66.308736 66.052262 65.784609 65.505899 65.216425 64.916341 64.605983 64.285534 63.955372 63.615711 63.266968 62.909383 62.543407 62.169304 61.787555 61.398441 61.002466 60.599923 60.191330 59.776987 59.357419 58.932925 58.504031 58.071026 57.634429 57.194515 56.751789 56.306508 55.859154 55.409961 54.959386 54.507634 54.055132 53.602056 53.148800 52.695506 52.242533 51.789992 51.338203 50.887244 50.437398 49.988712 49.541430 49.095567 48.651330 48.208707 47.767867 47.328770 46.891550 46.456144 46.022652 45.590988 45.161221 44.733246 44.307101 43.882666 43.459950 43.038820 42.619259 42.201126 41.784377 41.368865 40.954525 40.541205 40.128821 39.717221 39.306302 38.895914 38.485940 38.076234 37.666667