# vtk DataFile Version 3.0
Steady-state temperature (Jacobi)
ASCII
DATASET STRUCTURED_POINTS
DIMENSIONS 181 181 1
ORIGIN 0.0 0.0 0.0
SPACING 0.05 0.05 1.0
POINT_DATA 32761
SCALARS Temperature float 1
LOOKUP_TABLE default
32.000000 32.000000 32.000000 32.000000 32.000000 32.000000 32.000000 32.000000
32.000000 32.000000 32.000000 32.000000 32.000000 32.000000 32.000000 32.000000
32.000000 32.000000 32.000000 32.000000 32.000000 32.000000 32.000000 32.000000
32.000000 32.000000 32.000000 32.000000 32.000000 32.000000 32.000000 32.000000
32.000000 32.000000 32.000000 32.000000 32.000000 32.000000 32.000000 32.000000
32.000000 32.000000 32.000000 32.000000 32.000000 32.000000 32.000000 32.000000
32.000000 32.000000 32.000000 32.000000 32.000000 32.000000 32.000000 32.000000
32.000000 32.000000 32.000000 32.000000 32.000000 32.000000 32.000000 32.000000
32.000000 32.000000 32.000000 32.000000 32.000000 32.000000 32.000000 32.000000
32.000000 32.000000 32.000000 32.000000 32.000000 32.000000 32.000000 32.000000
32.000000 32.000000 32.000000 32.000000 32.000000 32.000000 32.000000 32.000000
32.000000 32.000000 32.000000 32.000000 32.000000 32.000000 32.000000 32.000000
32.000000 32.000000 32.000000 32.000000 32.000000 32.000000 32.000000 32.000000
32.000000 32.000000 32.000000 32.000000 32.000000 32.000000 32.000000 32.000000
32.000000 32.000000 32.000000 32.000000 32.000000 32.000000 32.000000 32.000000
32.000000 32.000000 32.000000 32.000000 32.000000 32.000000 32.000000 32.000000
32.000000 32.000000 32.000000 32.000000 32.000000 32.000000 32.000000 32.000000
32.000000 32.000000 32.000000 32.000000 32.000000 32.000000 32.000000 32.000000
32.000000 32.000000 32.000000 32.000000 32.000000 32.000000 32.000000 32.000000
32.000000 32.000000 32.000000 32.000000 32.000000 32.000000 32.000000 32.000000
32.000000 32.000000 32.000000 32.000000 32.000000 32.000000 32.000000 32.000000
32.000000 32.000000 32.000000 32.000000 32.000000 32.000000 32.000000 32.000000
32.000000 32.000000 32.000000 32.000000 32.000000
32.377778 32.399174 32.420586 32.442028 32.463513 32.485060 32.506679 32.528388
32.550196 32.572122 32.594172 32.616366 32.638707 32.661216 32.683891 32.706754
32.729800 32.753052 32.776500 32.800166 32.824038 32.848137 32.872447 32.896987
32.921739 32.946721 32.971909 32.997321 33.022930 33.048750 33.074752 33.100949
33.127308 33.153838 33.180504 33.207313 33.234227 33.261250 33.288342 33.315506
33.342696 33.369915 33.397116 33.424297 33.451411 33.478455 33.505378 33.532178
33.558803 33.585248 33.611461 33.637437 33.663124 33.688516 33.713561 33.738254
33.762543 33.786423 33.809846 33.832804 33.855252 33.877184 33.898556 33.919364
33.939566 33.959158 33.978103 33.996397 34.014005 34.030926 34.047128 34.062610
34.077344 34.091330 34.104543 34.116983 34.128630 34.139484 34.149527 34.158761
34.167170 34.174756 34.181507 34.187424 34.192498 34.196731 34.200116 34.202653
34.204340 34.205176 34.205160 34.204293 34.202575 34.200007 34.196591 34.192328
34.187223 34.181276 34.174496 34.166881 34.158445 34.149184 34.139115 34.128235
34.116564 34.104101 34.090867 34.076861 34.062108 34.046609 34.030393 34.013459
33.995840 33.977539 33.958589 33.938994 33.918793 33.897990 33.876625 33.854705
33.832273 33.809335 33.785937 33.762087 33.737833 33.713181 33.688183 33.662844
33.637217 33.611308 33.585169 33.558807 33.532272 33.505571 33.478756 33.451829
33.424843 33.397798 33.370746 33.343686 33.316667 33.289686 33.262789 33.235973
33.209280 33.182706 33.156289 33.130022 33.103942 33.078039 33.052346 33.026851
33.001584 32.976532 32.951720 32.927132 32.902792 32.878681 32.854819 32.831188
32.807801 32.784640 32.761716 32.739009 32.716526 32.694246 32.672173 32.650287
32.628589 32.607056 32.585688 32.564462 32.543374 32.522404 32.501543 32.480772
32.460080 32.439449 32.418866 32.398314 32.377778
32.755556 32.798360 32.841195 32.884089 32.927075 32.970177 33.013431 33.056856
33.100491 33.144349 33.188470 33.232863 33.277568 33.322589 33.367965 33.413694
33.459816 33.506320 33.553249 33.600582 33.648361 33.696560 33.745217 33.794299
33.843843 33.893807 33.944226 33.995052 34.046313 34.097957 34.150009 34.202407
34.255172 34.308237 34.361620 34.415244 34.469124 34.523179 34.577417 34.631752
34.686188 34.740634 34.795092 34.849464 34.903748 34.957846 35.011750 35.065360
35.118667 35.171567 35.224050 35.276012 35.327441 35.378235 35.428379 35.477773
35.526404 35.574172 35.621066 35.666990 35.711932 35.755803 35.798591 35.840211
35.880655 35.919843 35.957769 35.994359 36.029609 36.063452 36.095885 36.126850
36.156344 36.184314 36.210763 36.235642 36.258955 36.280661 36.300763 36.319228
36.336059 36.351230 36.364741 36.376574 36.386731 36.395195 36.401969 36.407043
36.410419 36.412091 36.412060 36.410325 36.406887 36.401751 36.394915 36.386390
36.376173 36.364281 36.350711 36.335483 36.318597 36.300077 36.279923 36.258166
36.234805 36.209880 36.183388 36.155377 36.125846 36.094849 36.062386 36.028518
35.993247 35.956641 35.918705 35.879512 35.839070 35.797459 35.754686 35.710839
35.665929 35.620045 35.573201 35.525493 35.476933 35.427621 35.377570 35.326883
35.275574 35.223746 35.171411 35.118676 35.065550 35.012138 34.958449 34.904587
34.850556 34.796459 34.742298 34.688170 34.634075 34.580106 34.526258 34.472619
34.419181 34.366027 34.313142 34.260604 34.208395 34.156585 34.105152 34.054160
34.003582 33.953474 33.903808 33.854631 33.805911 33.757689 33.709928 33.662664
33.615856 33.569533 33.523654 33.478237 33.433242 33.388680 33.344509 33.300734
33.257313 33.214245 33.171486 33.129031 33.086836 33.044889 33.003150 32.961601
32.920203 32.878932 32.837754 32.796639 32.755556
33.133333 33.197569 33.261849 33.326222 33.390726 33.455415 33.520319 33.585496
33.650969 33.716799 33.783001 33.849638 33.916716 33.984297 34.052381 34.121030
34.190233 34.260051 34.330463 34.401530 34.473219 34.545588 34.618596 34.692295
34.766634 34.841663 34.917317 34.993642 35.070563 35.148121 35.226229 35.304923
35.384105 35.463805 35.543914 35.624457 35.705317 35.786509 35.867907 35.949523
36.031222 36.113007 36.194739 36.276416 36.357890 36.439156 36.520061 36.600596
36.680605 36.760074 36.838847 36.916907 36.994098 37.070402 37.145664 37.219865
37.292855 37.364612 37.434993 37.503979 37.571429 37.637327 37.701542 37.764058
37.824753 37.883613 37.940526 37.995482 38.048377 38.099205 38.147871 38.194373
38.238626 38.280630 38.320312 38.357672 38.392647 38.425241 38.455398 38.483124
38.508373 38.531150 38.551420 38.569186 38.584421 38.597129 38.607290 38.614909
38.619972 38.622482 38.622436 38.619832 38.614675 38.606963 38.596709 38.583910
38.568585 38.550730 38.530373 38.507510 38.482178 38.454371 38.424135 38.391466
38.356418 38.318989 38.279243 38.237179 38.192871 38.146319 38.097608 38.046743
37.993817 37.938838 37.881910 37.823042 37.762351 37.699847 37.635656 37.569793
37.502390 37.433466 37.363160 37.291492 37.218609 37.144531 37.069409 36.993265
36.916254 36.838395 36.759845 36.680622 36.600885 36.520647 36.440066 36.359152
36.278060 36.196795 36.115508 36.034199 35.953013 35.871945 35.791132 35.710564
35.630368 35.550530 35.471167 35.392258 35.313911 35.236099 35.158920 35.082339
35.006445 34.931196 34.856672 34.782825 34.709722 34.637311 34.565650 34.494681
34.424451 34.354900 34.286062 34.217876 34.150365 34.083466 34.017192 33.951478
33.886329 33.821678 33.757522 33.693795 33.630484 33.567525 33.504896 33.442537
33.380417 33.318479 33.256686 33.194985 33.133333
33.511111 33.596812 33.682575 33.768456 33.854522 33.940820 34.027425 34.114373
34.201742 34.289560 34.377907 34.466800 34.556321 34.646475 34.737344 34.828922
34.921291 35.014429 35.108418 35.203224 35.298924 35.395470 35.492937 35.591261
35.690512 35.790611 35.891625 35.993458 36.096170 36.199653 36.303956 36.408958
36.514702 36.621051 36.728040 36.835520 36.943516 37.051866 37.160588 37.269508
37.378635 37.487786 37.596962 37.705971 37.814807 37.923270 38.031348 38.138838
38.245720 38.351789 38.457022 38.561210 38.664330 38.766174 38.866715 38.965750
39.063253 39.159025 39.253041 39.345110 39.435207 39.523152 39.608923 39.692350
39.773415 39.851959 39.927968 40.001297 40.071936 40.139752 40.204739 40.266779
40.325869 40.381904 40.434886 40.484723 40.531418 40.574894 40.615154 40.652134
40.685841 40.716219 40.743276 40.766970 40.787306 40.804253 40.817817 40.827977
40.834736 40.838084 40.838021 40.834549 40.827666 40.817382 40.803696 40.786626
40.766170 40.742358 40.715185 40.684693 40.650876 40.613788 40.573423 40.529847
40.483056 40.433128 40.380060 40.323944 40.264781 40.202675 40.137629 40.069763
39.999083 39.925723 39.849693 39.771141 39.690079 39.606670 39.520930 39.433032
39.342998 39.251011 39.157096 39.061443 38.964082 38.865210 38.764857 38.663227
38.560347 38.456426 38.351491 38.245752 38.139231 38.032138 37.924491 37.816498
37.708171 37.599712 37.491128 37.382614 37.274170 37.165981 37.058039 36.950522
36.843410 36.736871 36.630878 36.525583 36.420953 36.317127 36.214062 36.111884
36.010540 35.910145 35.810637 35.712114 35.614510 35.517908 35.422235 35.327559
35.233803 35.141021 35.049130 34.958170 34.868056 34.778814 34.690357 34.602698
34.515748 34.429507 34.343888 34.258877 34.174391 34.090404 34.006833 33.923644
33.840757 33.758128 33.675682 33.593366 33.511111
33.888889 33.996102 34.103389 34.210832 34.318494 34.426466 34.534799 34.643590
34.752878 34.862764 34.973275 35.084513 35.196493 35.309317 35.422985 35.537600
35.653145 35.769722 35.887297 36.005971 36.125690 36.246552 36.368486 36.491583
36.615755 36.741086 36.867470 36.994981 37.123497 37.253083 37.383598 37.515098
37.647422 37.780619 37.914510 38.049132 38.184290 38.320012 38.456086 38.592530
38.729119 38.865859 39.002516 39.139084 39.275320 39.411210 39.546502 39.681176
39.814973 39.947869 40.079603 40.210144 40.339232 40.466834 40.592693 40.716774
40.838826 40.958814 41.076497 41.191840 41.304612 41.414783 41.522133 41.626637
41.728090 41.826470 41.921588 42.013429 42.101818 42.186746 42.268057 42.345744
42.419670 42.489833 42.556111 42.618507 42.676915 42.731342 42.781697 42.827989
42.870144 42.908169 42.942006 42.971662 42.997093 43.018305 43.035266 43.047982
43.056434 43.060624 43.060546 43.056201 43.047594 43.034724 43.017610 42.996246
42.970666 42.940862 42.906881 42.868713 42.826421 42.779994 42.729508 42.674956
42.616428 42.553919 42.487534 42.417272 42.343255 42.265484 42.184101 42.099110
42.010670 41.918791 41.823647 41.725256 41.623809 41.519326 41.412016 41.301904
41.189212 41.073970 40.956413 40.836575 40.714700 40.590824 40.465200 40.337864
40.209076 40.078870 39.947510 39.815025 39.681680 39.547501 39.412749 39.277446
39.141847 39.005966 38.870051 38.734106 38.598372 38.462842 38.327744 38.193062
38.059011 37.925564 37.792919 37.661040 37.530110 37.400079 37.271115 37.143157
37.016355 36.890640 36.766141 36.642780 36.520670 36.399724 36.280035 36.161510
36.044225 35.928080 35.813131 35.699277 35.586555 35.474859 35.364212 35.254504
35.145743 35.037820 34.930724 34.824348 34.718669 34.613580 34.509044 34.404961
34.301278 34.197901 34.094767 33.991787 33.888889
34.266667 34.395447 34.524321 34.653372 34.782704 34.912387 35.042533 35.173197
35.304499 35.436479 35.569259 35.702864 35.837419 35.972931 36.109525 36.247191
36.386054 36.526081 36.667397 36.809948 36.953854 37.099041 37.245622 37.393503
37.542789 37.693363 37.845322 37.998527 38.153064 38.308772 38.465728 38.623747
38.782894 38.942964 39.104009 39.265803 39.428386 39.591514 39.755211 39.919218
40.083546 40.247920 40.412339 40.576515 40.740436 40.903804 41.066596 41.228506
41.389505 41.549280 41.707797 41.864743 42.020076 42.173487 42.324932 42.474106
42.620965 42.765213 42.906808 43.045463 43.181141 43.313570 43.442715 43.568322
43.690362 43.808597 43.923005 44.033369 44.139674 44.241720 44.339500 44.432836
44.521725 44.606011 44.685696 44.760643 44.830859 44.896227 44.956757 45.012350
45.063017 45.108678 45.149345 45.184955 45.215517 45.240985 45.261368 45.276636
45.286792 45.291823 45.291730 45.286513 45.276171 45.260720 45.240154 45.214504
45.183763 45.147978 45.107138 45.061306 45.010474 44.954720 44.894035 44.828517
44.758158 44.683075 44.603262 44.518858 44.429859 44.336424 44.238557 44.136437
44.030072 43.919662 43.805223 43.686976 43.564942 43.439362 43.310264 43.177907
43.042325 42.903792 42.762347 42.618280 42.471633 42.322706 42.171543 42.018453
41.863479 41.706937 41.548866 41.389585 41.229128 41.067813 40.905669 40.743007
40.579850 40.416500 40.252970 40.089553 39.926249 39.763340 39.600814 39.438936
39.277681 39.117297 38.957748 38.799261 38.641786 38.485533 38.330436 38.176686
38.024204 37.873158 37.723460 37.575254 37.428441 37.283145 37.139258 36.996879
36.855894 36.716381 36.578218 36.441462 36.305987 36.171830 36.038860 35.907095
35.776403 35.646782 35.518101 35.390340 35.263371 35.137156 35.011570 34.886560
34.762007 34.637843 34.513956 34.390265 34.266667
34.644444 34.794861 34.945382 35.096123 35.247174 35.398662 35.550661 35.703306
35.856655 36.010848 36.165924 36.322028 36.479180 36.637526 36.797065 36.957944
37.120138 37.283793 37.448860 37.615481 37.783584 37.953305 38.124545 38.297433
38.471846 38.647901 38.825451 39.004602 39.185180 39.367278 39.550698 39.735519
39.921517 40.108756 40.296989 40.486265 40.676312 40.867165 41.058531 41.250429
41.442547 41.634890 41.827127 42.019251 42.210918 42.402106 42.592461 42.781952
42.970216 43.157213 43.342577 43.526263 43.707905 43.887451 44.064542 44.239125
44.410848 44.579658 44.745214 44.907469 45.066096 45.221051 45.372026 45.518984
45.661638 45.799956 45.933673 46.062768 46.186997 46.306347 46.420599 46.529747
46.633597 46.732149 46.825233 46.912854 46.994866 47.071279 47.141969 47.206948
47.266114 47.319479 47.366963 47.408577 47.444260 47.474021 47.497818 47.515658
47.527516 47.533395 47.533287 47.527192 47.515120 47.497065 47.473056 47.443084
47.407193 47.365374 47.317690 47.264127 47.204769 47.139604 47.068733 46.992146
46.909968 46.822189 46.728956 46.630267 46.526290 46.417027 46.302674 46.183238
46.058938 45.929791 45.796039 45.657707 45.515061 45.368134 45.217215 45.062343
44.903829 44.741717 44.576337 44.407737 44.236264 44.061968 43.885207 43.706034
43.524813 43.341597 43.156754 42.970333 42.782703 42.593906 42.404309 42.213943
42.023169 41.832007 41.640809 41.449581 41.258661 41.068043 40.878045 40.688649
40.500154 40.312524 40.126038 39.940645 39.756601 39.573840 39.392592 39.212777
39.034600 38.857967 38.683059 38.509765 38.338243 38.168371 38.000278 37.833835
37.669145 37.506068 37.344684 37.184848 37.026612 36.869828 36.714525 36.560551
36.407913 36.256459 36.106173 35.956905 35.808620 35.661170 35.514500 35.368468
35.223002 35.077968 34.933277 34.788803 34.644444
35.022222 35.194350 35.366605 35.539099 35.711970 35.885315 36.059283 36.233951
36.409476 36.585917 36.763435 36.942066 37.121977 37.303179 37.485842 37.669950
37.855673 38.042968 38.232002 38.422706 38.615238 38.809504 39.005653 39.203561
39.403369 39.604922 39.808349 40.013466 40.220388 40.428902 40.639106 40.850760
41.063944 41.278390 41.494162 41.710962 41.928839 42.147468 42.366879 42.586726
42.807021 43.027396 43.247847 43.467988 43.687800 43.906882 44.125201 44.342348
44.558277 44.772573 44.985181 45.195683 45.404020 45.609777 45.812890 46.012951
46.209897 46.403332 46.593195 46.779103 46.961003 47.138531 47.311638 47.479984
47.643529 47.801956 47.955236 48.103078 48.245460 48.382121 48.513048 48.638008
48.756996 48.869807 48.976443 49.076726 49.170665 49.258107 49.339066 49.413414
49.481166 49.542219 49.596588 49.644193 49.685046 49.719090 49.746334 49.766740
49.780314 49.787039 49.786916 49.779946 49.766127 49.745477 49.717992 49.683709
49.642619 49.594782 49.540184 49.478907 49.410936 49.336376 49.255212 49.167572
49.073444 48.972981 48.866177 48.753209 48.634077 48.508987 48.377945 48.241187
48.098724 47.950823 47.797505 47.639062 47.475526 47.307217 47.134174 46.956743
46.774971 46.589227 46.399566 46.206373 46.009710 45.809979 45.607242 45.401914
45.194057 44.984092 44.772080 44.558445 44.343239 44.126887 43.909432 43.691292
43.472499 43.253461 43.034196 42.815098 42.596171 42.377789 42.159940 41.942979
41.726875 41.511959 41.298182 41.085851 40.874898 40.665603 40.457880 40.251980
40.047802 39.845567 39.645158 39.446767 39.250263 39.055807 38.863255 38.672741
38.484109 38.297464 38.112641 37.929716 37.748519 37.569098 37.391279 37.215083
37.040333 36.867026 36.694987 36.524186 36.354451 36.185732 36.017860 35.850763
35.684282 35.518324 35.352739 35.187418 35.022222
35.400000 35.593931 35.787997 35.982349 36.177105 36.372429 36.568418 36.765248
36.962993 37.161837 37.361832 37.563164 37.765861 37.970113 38.175920 38.383472
38.592739 38.803909 39.016923 39.231963 39.448938 39.668023 39.889095 40.112319
40.337538 40.564903 40.794228 41.025646 41.258938 41.494221 41.731242 41.970102
42.210512 42.452556 42.695914 42.940647 43.186408 43.433237 43.680756 43.928989
44.177531 44.426385 44.675127 44.923739 45.171778 45.419212 45.665584 45.910845
46.154530 46.396579 46.636520 46.874287 47.109408 47.341811 47.571030 47.796991
48.019239 48.237702 48.451940 48.661885 48.867116 49.067573 49.262861 49.452925
49.637399 49.816239 49.989105 50.155968 50.316517 50.470734 50.618340 50.759326
50.893448 51.020704 51.140881 51.253986 51.359835 51.458441 51.549649 51.633477
51.709796 51.778624 51.839860 51.893521 51.939530 51.977902 52.008582 52.031581
52.046868 52.054448 52.054310 52.046456 52.030895 52.007624 51.976674 51.938034
51.891761 51.837839 51.776347 51.707269 51.630705 51.546640 51.455202 51.356375
51.250315 51.137009 51.016644 50.889212 50.754930 50.613798 50.466064 50.311739
50.151101 49.984171 49.811263 49.632406 49.447944 49.257921 49.062708 48.862358
48.657273 48.447513 48.233503 48.015311 47.793384 47.567793 47.338999 47.107076
46.872498 46.635335 46.396066 46.154759 45.911891 45.667522 45.422125 45.175749
44.928858 44.681485 44.434081 44.186663 43.939662 43.693077 43.447319 43.202365
42.958602 42.715987 42.474878 42.235212 41.997317 41.761109 41.526885 41.294541
41.064343 40.836166 40.610243 40.386435 40.164939 39.945600 39.728582 39.513718
39.301139 39.090666 38.882398 38.676147 38.471981 38.269706 38.069358 37.870741
37.673862 37.478524 37.284706 37.092211 36.900994 36.710863 36.521746 36.333459
36.145908 35.958918 35.772374 35.586112 35.400000
35.777778 35.993604 36.209590 36.425879 36.642647 36.860014 37.078170 37.297213
37.517343 37.738632 37.961287 38.185354 38.411042 38.638370 38.867548 39.098562
39.331623 39.566684 39.803950 40.043340 40.285053 40.528972 40.775285 41.023840
41.274811 41.528009 41.783595 42.041340 42.301387 42.563473 42.827719 43.093824
43.361890 43.631580 43.902973 44.175698 44.449810 44.724905 45.001017 45.277711
45.554997 45.832415 46.109954 46.387129 46.663911 46.939795 47.214735 47.488213
47.760168 48.030074 48.297858 48.562993 48.825396 49.084545 49.340354 49.592309
49.840324 50.083901 50.322955 50.557010 50.785989 51.009439 51.227293 51.439125
51.644882 51.844170 52.036946 52.222852 52.401857 52.573639 52.738180 52.895193
53.044671 53.186363 53.320273 53.446183 53.564105 53.673853 53.775446 53.868730
53.953724 54.030305 54.098493 54.158190 54.209417 54.252101 54.286258 54.311841
54.328860 54.337292 54.337140 54.328405 54.311084 54.285200 54.250745 54.207766
54.156247 54.096262 54.027792 53.950934 53.865670 53.772125 53.670278 53.560285
53.442130 53.316000 53.181882 53.039996 52.890340 52.733168 52.568486 52.396584
52.217481 52.031503 51.838680 51.639375 51.433632 51.221846 51.004075 50.780747
50.551930 50.318082 50.079279 49.836007 49.588348 49.336806 49.081468 48.822855
48.561053 48.296592 48.029555 47.760474 47.489426 47.216941 46.943084 46.668378
46.392871 46.117076 45.841021 45.565202 45.289627 45.014767 44.740611 44.467604
44.195710 43.925344 43.656449 43.389405 43.124133 42.860979 42.599840 42.341028
42.084416 41.830280 41.578475 41.329236 41.082402 40.838171 40.596365 40.357145
40.120319 39.886013 39.654022 39.424438 39.197048 38.971907 38.748799 38.527746
38.308528 38.091136 37.875350 37.661131 37.448264 37.236680 37.026169 36.816640
36.607889 36.399801 36.192185 35.984902 35.777778
36.155556 36.393387 36.631387 36.869742 37.108598 37.348157 37.588543 37.829970
38.072534 38.316460 38.561815 38.808829 39.057540 39.308180 39.560754 39.815493
40.072366 40.331604 40.593138 40.857191 41.123656 41.392746 41.664316 41.938565
42.215308 42.494728 42.776599 43.061086 43.347920 43.637247 43.928757 44.222573
44.518343 44.816167 45.115655 45.416878 45.719412 46.023301 46.328086 46.633786
46.939907 47.246447 47.552884 47.859191 48.164822 48.469731 48.773353 49.075623
49.375965 49.674299 49.970044 50.263108 50.552910 50.839353 51.121863 51.400339
51.674224 51.943418 52.207381 52.466023 52.718828 52.965715 53.206199 53.440211
53.667299 53.887410 54.100129 54.305415 54.502895 54.692543 54.874023 55.047325
55.212154 55.368509 55.516136 55.655044 55.785016 55.906069 56.018021 56.120893
56.214536 56.298973 56.374088 56.439901 56.496324 56.543376 56.580995 56.609195
56.627938 56.637233 56.637067 56.627441 56.608368 56.579840 56.541896 56.494521
56.437779 56.371651 56.296229 56.211488 56.117551 56.014392 55.902165 55.780845
55.650619 55.511469 55.363615 55.207048 55.042027 54.868550 54.686916 54.497138
54.299553 54.094187 53.881419 53.661290 53.434218 53.200259 52.959867 52.713114
52.460489 52.202074 51.938391 51.669530 51.396039 51.118016 50.836027 50.550173
50.261035 49.968711 49.673790 49.376363 49.077020 48.775842 48.473413 48.169800
47.865574 47.560784 47.255983 46.951200 46.646965 46.343281 46.040653 45.739058
45.438970 45.140339 44.843604 44.548691 44.256000 43.965431 43.677345 43.391618
43.108570 42.828054 42.550349 42.275286 42.003103 41.733611 41.467008 41.203089
40.942010 40.683553 40.427834 40.174624 39.924002 39.675729 39.429847 39.186115
38.944538 38.704873 38.467091 38.230952 37.996395 37.763184 37.531230 37.300305
37.070291 36.840971 36.612204 36.383787 36.155556
36.533333 36.793280 37.053423 37.313934 37.575029 37.836855 38.099643 38.363513
38.628708 38.895318 39.163593 39.433592 39.705570 39.979551 40.255791 40.534276
40.815261 41.098694 41.384821 41.673551 41.965123 42.259400 42.556609 42.856571
43.159496 43.465161 43.773757 44.085015 44.399104 44.715711 45.034980 45.356554
45.680550 46.006567 46.334695 46.664490 46.996014 47.328783 47.662829 47.997631
48.333194 48.668965 49.004919 49.340475 49.675585 50.009643 50.342580 50.673773
51.003135 51.330031 51.654361 51.975487 52.293299 52.607165 52.916968 53.222089
53.522411 53.817333 54.106746 54.390071 54.667210 54.937615 55.201199 55.457453
55.706305 55.947284 56.180335 56.405030 56.621333 56.828858 57.027585 57.217173
57.397618 57.568623 57.730195 57.882079 58.024292 58.156621 58.279089 58.391518
58.493936 58.586201 58.668340 58.740242 58.801933 58.853333 58.894460 58.925263
58.945754 58.955907 58.955728 58.945216 58.924368 58.893210 58.851730 58.799981
58.737945 58.665703 58.583230 58.490638 58.387901 58.275162 58.152395 58.019778
57.877289 57.725144 57.563326 57.392094 57.211440 57.021663 56.822770 56.615105
56.398689 56.173909 55.940805 55.699809 55.450975 55.194781 54.931297 54.661040
54.384098 54.101023 53.811915 53.517359 53.217465 52.912842 52.603606 52.290385
51.973296 51.652979 51.329546 51.003643 50.675370 50.345371 50.013735 49.681092
49.347514 49.013616 48.679446 48.345596 48.012090 47.679491 47.347796 47.017537
46.688679 46.361719 46.036593 45.713757 45.393120 45.075094 44.759561 44.446889
44.136931 43.830013 43.525963 43.225061 42.927111 42.632350 42.340562 42.051937
41.766245 41.483632 41.203853 40.927011 40.652851 40.381436 40.112503 39.846076
39.581888 39.319925 39.059922 38.801828 38.545381 38.290497 38.036922 37.784540
37.533108 37.282481 37.032430 36.782785 36.533333
36.911111 37.193301 37.475692 37.758510 38.041931 38.326197 38.611457 38.897969
39.185850 39.475367 39.766606 40.059840 40.355119 40.652719 40.952650 41.255189
41.560304 41.868267 42.179004 42.492779 42.809472 43.129334 43.452199 43.778304
44.107432 44.439802 44.775150 45.113670 45.455050 45.799459 46.146535 46.496418
46.848699 47.203490 47.560331 47.919304 48.279905 48.642183 49.005591 49.370148
49.735267 50.100936 50.466535 50.832021 51.196747 51.560644 51.923041 52.283848
52.642379 52.998524 53.351590 53.701455 54.047426 54.389373 54.726613 55.059012
55.385904 55.707161 56.022140 56.330720 56.632292 56.926748 57.213514 57.492501
57.763177 58.025469 58.278894 58.523398 58.758544 58.984300 59.200277 59.406461
59.602512 59.788431 59.963924 60.129008 60.283433 60.427223 60.560171 60.682309
60.793466 60.893676 60.982806 61.060887 61.127819 61.183627 61.228243 61.261686
61.283915 61.294939 61.294747 61.283337 61.260725 61.226901 61.181906 61.125722
61.058420 60.979974 60.890486 60.789924 60.678424 60.555954 60.422684 60.278584
60.123864 59.958500 59.782743 59.596579 59.400305 59.193919 58.977765 58.751859
58.516592 58.271998 58.018519 57.756207 57.485554 57.206632 56.919978 56.625682
56.324325 56.016015 55.701370 55.380509 55.054083 54.722222 54.385600 54.044351
53.699166 53.350177 52.998085 52.643014 52.285666 51.926152 51.565166 51.202802
50.839739 50.476047 50.112385 49.748796 49.385909 49.023740 48.662883 48.303322
47.945615 47.589712 47.236130 46.884786 46.536151 46.190111 45.847091 45.506945
45.170050 44.836233 44.505819 44.178611 43.854884 43.534416 43.217437 42.903702
42.593393 42.286249 41.982405 41.681587 41.383883 41.089011 40.797015 40.507607
40.220789 39.936272 39.654018 39.373739 39.095360 38.818600 38.543348 38.269332
37.996410 37.724322 37.452898 37.181893 36.911111
37.288889 37.593444 37.898231 38.203457 38.509375 38.816164 39.124094 39.433312
39.744103 40.056580 40.371034 40.687543 41.006403 41.327651 41.651586 41.978200
42.307789 42.640301 42.976024 43.314859 43.657083 44.002545 44.351510 44.703775
45.059584 45.418684 45.781296 46.147112 46.516328 46.888583 47.264043 47.642294
48.023470 48.407105 48.793300 49.181538 49.571885 49.963775 50.357240 50.751670
51.147060 51.542762 51.938736 52.334301 52.729386 53.123280 53.515887 53.906474
54.294922 54.680485 55.063028 55.441801 55.816657 56.186849 56.552227 56.912060
57.266196 57.613927 57.955111 58.289070 58.615673 58.934282 59.244784 59.546583
59.839587 60.123250 60.397503 60.661849 60.916243 61.160243 61.393824 61.616598
61.828559 62.029371 62.219046 62.397298 62.564150 62.719362 62.862969 62.994772
63.114810 63.222925 63.319155 63.403378 63.475629 63.535819 63.583975 63.620041
63.644032 63.655922 63.655717 63.643416 63.619015 63.582543 63.533982 63.473392
63.400746 63.316133 63.219521 63.111032 62.990628 62.858470 62.714520 62.558978
62.391810 62.213261 62.023305 61.822232 61.610032 61.387044 61.153274 60.909116
60.654593 60.390153 60.115842 59.832162 59.539182 59.237456 58.927075 58.608642
58.282270 57.948606 57.607780 57.260478 56.906843 56.547593 56.182879 55.813440
55.439431 55.061604 54.680109 54.295706 53.908530 53.519339 53.128251 52.736012
52.342716 51.949088 51.555198 51.161740 50.768753 50.376899 49.986181 49.597223
49.209992 48.825067 48.442381 48.062465 47.685215 47.311113 46.940020 46.572366
46.207981 45.847240 45.489944 45.136415 44.786425 44.440244 44.097622 43.758773
43.423429 43.091753 42.763459 42.438661 42.117060 41.798724 41.483344 41.170941
40.861204 40.554109 40.249344 39.946845 39.646304 39.347617 39.050485 38.754769
38.460180 38.166547 37.873597 37.581129 37.288889
37.666667 37.993729 38.321029 38.648829 38.977341 39.306845 39.637522 39.969669
40.303431 40.639117 40.976833 41.316898 41.659375 42.004585 42.352548 42.703585
43.057667 43.415109 43.775834 44.140146 44.507914 44.879431 45.254512 45.633428
46.015940 46.402297 46.792203 47.185879 47.582972 47.983674 48.387573 48.794827
49.204968 49.618119 50.033754 50.451959 50.872156 51.294391 51.718035 52.143095
52.568897 52.995410 53.421918 53.848356 54.273971 54.698667 55.121665 55.542839
55.961393 56.377179 56.789389 57.197861 57.601788 58.000998 58.394694 58.782704
59.164249 59.539164 59.906701 60.266705 60.618466 60.961847 61.296185 61.621365
61.936773 62.242321 62.537450 62.822098 63.095764 63.358411 63.609598 63.849310
64.077164 64.293168 64.496992 64.688661 64.867898 65.034738 65.188955 65.330590
65.459460 65.575609 65.678893 65.769356 65.846889 65.911527 65.963197 66.001924
66.027666 66.040434 66.040216 66.027012 66.000837 65.961678 65.909579 65.844516
65.766564 65.675689 65.571999 65.455452 65.326195 65.184184 65.029604 64.862413
64.682842 64.490857 64.286735 64.070456 63.842349 63.602409 63.351024 63.088209
62.814408 62.529662 62.234473 61.928909 61.613530 61.288429 60.954223 60.611030
60.259520 59.899832 59.532682 59.158226 58.777221 58.389835 57.996853 57.598450
57.195433 56.787973 56.376889 55.962344 55.545158 55.125477 54.704111 54.281186
53.857492 53.433129 53.008859 52.584748 52.161527 51.739225 51.318530 50.899436
50.482584 50.067928 49.656060 49.246894 48.840969 48.438160 48.038951 47.643179
47.251274 46.863037 46.478840 46.098453 45.722191 45.349797 44.981528 44.617102
44.256722 43.900086 43.547342 43.198173 42.852672 42.510514 42.171741 41.836020
41.503345 41.173381 40.846077 40.521098 40.198351 39.877509 39.558438 39.240822
38.924489 38.609137 38.294564 37.980485 37.666667
38.044444 38.394148 38.744121 39.094607 39.445899 39.798209 40.151849 40.506995
40.863974 41.222924 41.584182 41.947842 42.314249 42.683450 43.055791 43.431270
43.810230 44.192617 44.578765 44.968567 45.362342 45.759927 46.161623 46.567209
46.976963 47.390603 47.808382 48.229955 48.655544 49.084743 49.517737 49.954062
50.393863 50.836614 51.282421 51.730698 52.181511 52.634215 53.088834 53.544670
54.001706 54.459195 54.917079 55.374572 55.831575 56.287270 56.741525 57.193494
57.643019 58.089239 58.531974 58.970358 59.404197 59.832629 60.255459 60.671838
61.081575 61.483848 61.878477 62.264678 62.642286 63.010567 63.369377 63.718034
64.056425 64.383925 64.700448 65.005436 65.298831 65.580137 65.849326 66.105965
66.350053 66.581216 66.799476 67.004517 67.196375 67.374790 67.539808 67.691218