<?xml version="1.0"?>
<VTKFile type="ImageData" version="0.1" byte_order="LittleEndian">
  <ImageData WholeExtent="0 180 0 180 0 0" Origin="0.0 0.0 0.0" Spacing="0.05 0.05 1">
    <Piece Extent="0 180 0 180 0 0">
      <PointData Scalars="Temperature">
        <DataArray type="Float32" Name="Temperature" format="ascii">
32.000000 32.000000 32.000000 32.000000 32.000000 32.000000 32.000000 32.000000 32.000000 32.000000 32.000000 32.000000 32.000000 32.000000 32.000000 32.000000 32.000000 32.000000 32.000000 32.000000 32.000000 32.000000 32.000000 32.000000 32.000000 32.000000 32.000000 32.000000 32.000000 32.000000 32.000000 32.000000 32.000000 32.000000 32.000000 32.000000 32.000000 32.000000 32.000000 32.000000 32.000000 32.000000 32.000000 32.000000 32.000000 32.000000 32.000000 32.000000 32.000000 32.000000 32.000000 32.000000 32.000000 32.000000 32.000000 32.000000 32.000000 32.000000 32.000000 32.000000 32.000000 32.000000 32.000000 32.000000 32.000000 32.000000 32.000000 32.000000 32.000000 32.000000 32.000000 32.000000 32.000000 32.000000 32.000000 32.000000 32.000000 32.000000 32.000000 32.000000 32.000000 32.000000 32.000000 32.000000 32.000000 32.000000 32.000000 32.000000 32.000000 32.000000 32.000000 32.000000 32.000000 32.000000 32.000000 32.000000 32.000000 32.000000 32.000000 32.000000 32.000000 32.000000 32.000000 32.000000 32.000000 32.000000 32.000000 32.000000 32.000000 32.000000 32.000000 32.000000 32.000000 32.000000 32.000000 32.000000 32.000000 32.000000 32.000000 32.000000 32.000000 32.000000 32.000000 32.000000 32.000000 32.000000 32.000000 32.000000 32.000000 32.000000 32.000000 32.000000 32.000000 32.000000 32.000000 32.000000 32.000000 32.000000 32.000000 32.000000 32.000000 32.000000 32.000000 32.000000 32.000000 32.000000 32.000000 32.000000 32.000000 32.000000 32.000000 32.000000 32.000000 32.000000 32.000000 32.000000 32.000000 32.000000 32.000000 32.000000 32.000000 32.000000 32.000000 32.000000 32.000000 32.000000 32.000000 32.000000 32.000000 32.000000 32.000000 32.000000 32.000000 32.000000 32.000000 32.000000 32.000000 32.000000 32.000000 32.000000 32.000000
32.377778 32.365562 32.353378 32.341258 32.329232 32.317335 32.305591 32.294039 32.282698 32.271609 32.260786 32.250271 32.240073 32.230236 32.220762 32.211696 32.203033 32.194822 32.187050 32.179765 32.172949 32.166651 32.160843 32.155579 32.150821 32.146625 32.142943 32.139835 32.137244 32.135232 32.133732 32.132809 32.132386 32.132532 32.133160 32.134343 32.135983 32.138157 32.140757 32.143864 32.147362 32.151334 32.155655 32.160412 32.165473 32.170928 32.176637 32.182693 32.188951 32.195508 32.202212 32.209163 32.216208 32.223445 32.230722 32.238139 32.245542 32.253033 32.260459 32.267923 32.275273 32.282613 32.289797 32.296926 32.303860 32.310698 32.317306 32.323783 32.330002 32.336057 32.341831 32.347413 32.352697 32.357766 32.362524 32.367047 32.371250 32.375202 32.378830 32.382195 32.385233 32.387997 32.390435 32.392591 32.394423 32.395965 32.397188 32.398114 32.398725 32.399033 32.399032 32.398721 32.398108 32.397179 32.395954 32.394409 32.392573 32.390414 32.387971 32.385202 32.382159 32.378788 32.375153 32.371193 32.366981 32.362448 32.357679 32.352598 32.347299 32.341701 32.335909 32.329834 32.323592 32.317090 32.310453 32.303584 32.296616 32.289449 32.282222 32.274835 32.267433 32.259913 32.252425 32.244867 32.237390 32.229893 32.222528 32.215196 32.208049 32.200988 32.194165 32.187481 32.181086 32.174884 32.169019 32.163399 32.158162 32.153219 32.148701 32.144521 32.140805 32.137470 32.134630 32.132206 32.130306 32.128854 32.127947 32.127512 32.127639 32.128258 32.129447 32.131142 32.133410 32.136190 32.139541 32.143405 32.147829 32.152760 32.158236 32.164206 32.170699 32.177666 32.185128 32.193039 32.201411 32.210200 32.219411 32.229001 32.238968 32.249272 32.259903 32.270823 32.282018 32.293448 32.305096 32.316923 32.328909 32.341016 32.353218 32.365482 32.377778
32.755556 32.731132 32.706773 32.682539 32.658499 32.634707 32.611237 32.588133 32.565473 32.543293 32.521674 32.500640 32.480277 32.460596 32.441686 32.423546 32.406269 32.389836 32.374346 32.359766 32.346195 32.333587 32.322044 32.311501 32.302068 32.293659 32.286390 32.280156 32.275080 32.271036 32.268152 32.266285 32.265568 32.265839 32.267237 32.269579 32.273013 32.277336 32.282702 32.288890 32.296063 32.303979 32.312809 32.322294 32.332613 32.343492 32.355115 32.367196 32.379924 32.393004 32.406630 32.420498 32.434806 32.449246 32.464020 32.478818 32.493843 32.508787 32.523855 32.538743 32.553655 32.568296 32.582868 32.597085 32.611148 32.624783 32.638186 32.651098 32.663709 32.675779 32.687488 32.698614 32.709329 32.719430 32.729077 32.738088 32.746611 32.754485 32.761841 32.768543 32.774703 32.780208 32.785152 32.789444 32.793160 32.796230 32.798710 32.800553 32.801792 32.802405 32.802403 32.801785 32.800540 32.798692 32.796207 32.793131 32.789408 32.785108 32.780156 32.774641 32.768470 32.761757 32.754387 32.746497 32.737957 32.728925 32.719256 32.709130 32.698386 32.687228 32.675483 32.663373 32.650716 32.637753 32.624294 32.610597 32.596465 32.582171 32.567514 32.552780 32.537764 32.522763 32.507571 32.492492 32.477319 32.462361 32.447412 32.432783 32.418270 32.404182 32.390319 32.376984 32.363982 32.351609 32.339675 32.328464 32.317794 32.307935 32.298712 32.290381 32.282772 32.276127 32.270281 32.265460 32.261506 32.258625 32.256668 32.255822 32.255946 32.257204 32.259465 32.262874 32.267305 32.272884 32.279492 32.287236 32.296002 32.305879 32.316758 32.328710 32.341633 32.355578 32.370449 32.386280 32.402978 32.420564 32.438947 32.458133 32.478036 32.498647 32.519884 32.541726 32.564093 32.586954 32.610232 32.633887 32.657844 32.682055 32.706450 32.730972 32.755556
33.133333 33.096718 33.060197 33.023871 32.987826 32.952170 32.916975 32.882358 32.848377 32.815155 32.782733 32.751240 32.720701 32.691249 32.662890 32.635762 32.609850 32.585298 32.562069 32.540310 32.519962 32.501178 32.483872 32.468206 32.454067 32.441622 32.430731 32.421571 32.413971 32.408118 32.403811 32.401247 32.400194 32.400859 32.402981 32.406778 32.411958 32.418750 32.426832 32.436444 32.447238 32.459463 32.472745 32.487345 32.502862 32.519569 32.537044 32.555568 32.574702 32.594735 32.615215 32.636436 32.657939 32.680023 32.702222 32.724841 32.747414 32.770247 32.792881 32.815621 32.838017 32.860374 32.882254 32.903960 32.925071 32.945884 32.965999 32.985707 33.004631 33.023049 33.040615 33.057592 33.073662 33.089073 33.103538 33.117287 33.130063 33.142076 33.153101 33.163324 33.172555 33.180952 33.188360 33.194908 33.200474 33.205157 33.208871 33.211682 33.213539 33.214474 33.214470 33.213528 33.211664 33.208845 33.205122 33.200430 33.194854 33.188295 33.180874 33.172463 33.163216 33.152975 33.141929 33.129893 33.117090 33.103311 33.088813 33.073363 33.057250 33.040225 33.022606 33.004126 32.985134 32.965351 32.945151 32.924244 32.903029 32.881208 32.859201 32.836703 32.814153 32.791243 32.768424 32.745387 32.722593 32.699733 32.677272 32.654904 32.633095 32.611543 32.590707 32.570292 32.550747 32.531786 32.513843 32.496639 32.480594 32.465436 32.451563 32.438715 32.427267 32.416968 32.408169 32.400628 32.394669 32.390063 32.387104 32.385574 32.385738 32.387389 32.390763 32.395663 32.402295 32.410473 32.420373 32.431819 32.444958 32.459625 32.475936 32.493735 32.513113 32.533919 32.556219 32.579870 32.604912 32.631209 32.658779 32.687489 32.717338 32.748198 32.780047 32.812762 32.846306 32.880559 32.915468 32.950918 32.986843 33.023134 33.059712 33.096474 33.133333
33.511111 33.462326 33.413673 33.365270 33.317259 33.269745 33.222879 33.176749 33.131513 33.087241 33.044099 33.002133 32.961518 32.922275 32.884585 32.848445 32.814040 32.781338 32.750533 32.721562 32.694626 32.669627 32.646778 32.625944 32.607348 32.590819 32.576588 32.564448 32.554642 32.546921 32.541544 32.538220 32.537220 32.538214 32.541487 32.546668 32.554057 32.563243 32.574539 32.587497 32.602446 32.618898 32.637198 32.656824 32.678134 32.700578 32.724524 32.749396 32.775574 32.802461 32.830448 32.858921 32.888279 32.917900 32.948188 32.978518 33.009300 33.039910 33.070760 33.101236 33.131751 33.161705 33.191507 33.220581 33.249328 33.277197 33.304582 33.330963 33.356720 33.381368 33.405273 33.427985 33.449850 33.470462 33.490141 33.508523 33.525903 33.541959 33.556956 33.570617 33.583172 33.594390 33.604465 33.613210 33.620780 33.627035 33.632085 33.635839 33.638364 33.639613 33.639608 33.638349 33.635815 33.632050 33.626988 33.620721 33.613138 33.604377 33.594286 33.583049 33.570472 33.556787 33.541763 33.525676 33.508261 33.489839 33.470114 33.449452 33.427529 33.404753 33.380776 33.356047 33.330199 33.303718 33.276220 33.248225 33.219340 33.190113 33.160140 33.129999 33.099278 33.068576 33.037478 33.006598 32.975521 32.944869 32.914232 32.884233 32.854466 32.825552 32.797091 32.769693 32.742969 32.717513 32.692944 32.669837 32.647824 32.627452 32.608365 32.591082 32.575261 32.561388 32.549135 32.538951 32.530523 32.524263 32.519874 32.517728 32.517542 32.519649 32.523781 32.530232 32.538747 32.549578 32.562487 32.577686 32.594948 32.614450 32.635974 32.659660 32.685301 32.713004 32.742569 32.774070 32.807316 32.842350 32.878988 32.917243 32.956938 32.998061 33.040441 33.084039 33.128692 33.174341 33.220826 33.268070 33.315921 33.364283 33.413013 33.462000 33.511111
33.888889 33.827969 33.767207 33.706775 33.646811 33.587502 33.528968 33.471403 33.414907 33.359685 33.305808 33.253491 33.202777 33.153890 33.106840 33.061860 33.018925 32.978277 32.939854 32.903907 32.870333 32.839394 32.810944 32.785257 32.762140 32.741882 32.724243 32.709524 32.697436 32.688297 32.681768 32.678181 32.677147 32.679016 32.683348 32.690510 32.700010 32.712235 32.726643 32.743639 32.762634 32.784050 32.807254 32.832684 32.859669 32.888662 32.918955 32.951017 32.984110 33.018717 33.054076 33.090681 33.127755 33.165802 33.204034 33.242964 33.281804 33.321069 33.359981 33.399056 33.437531 33.475920 33.513483 33.550730 33.586949 33.622642 33.657132 33.690909 33.723337 33.754888 33.784972 33.814037 33.841545 33.867916 33.892665 33.916180 33.938029 33.958565 33.977413 33.994883 34.010658 34.025002 34.037657 34.048839 34.058345 34.066342 34.072684 34.077483 34.080653 34.082249 34.082243 34.080635 34.077452 34.072640 34.066284 34.058272 34.048749 34.037548 34.024872 34.010504 33.994703 33.977202 33.958320 33.937745 33.915852 33.892287 33.867482 33.841047 33.813468 33.784322 33.754148 33.722496 33.689955 33.656052 33.621420 33.585571 33.549178 33.511740 33.473964 33.435341 33.396609 33.357251 33.318030 33.278426 33.239217 33.199886 33.161217 33.122698 33.085113 33.047956 33.012003 32.976759 32.942983 32.910191 32.879119 32.849298 32.821434 32.795071 32.770883 32.748430 32.728344 32.710205 32.694600 32.681127 32.670328 32.661818 32.656092 32.652782 32.652334 32.654400 32.659373 32.666925 32.677398 32.690482 32.706469 32.725065 32.746514 32.770536 32.797330 32.826629 32.858586 32.892947 32.929822 32.968969 33.010458 33.054054 33.099791 33.147444 33.197011 33.248275 33.301203 33.355584 33.411357 33.468319 33.526384 33.585356 33.645127 33.705510 33.766377 33.827552 33.888889
34.266667 34.193649 34.120829 34.048389 33.976543 33.905448 33.835334 33.766334 33.698690 33.632504 33.568030 33.505339 33.444694 33.386129 33.329920 33.276058 33.224830 33.176185 33.130421 33.087438 33.047548 33.010600 32.976918 32.946301 32.919086 32.895015 32.874443 32.857053 32.843219 32.832561 32.825475 32.821519 32.821108 32.823739 32.829848 32.838870 32.851263 32.866400 32.884762 32.905662 32.929603 32.955843 32.984903 33.015992 33.049651 33.085041 33.122722 33.161816 33.202898 33.245060 33.288890 33.333456 33.379359 33.425652 33.472947 33.520291 33.568301 33.616030 33.664100 33.711576 33.759081 33.805703 33.852061 33.897275 33.941956 33.985265 34.027798 34.068764 34.108740 34.146988 34.184063 34.219283 34.253174 34.285117 34.315600 34.344071 34.370977 34.395832 34.419037 34.440173 34.459591 34.476941 34.492516 34.506038 34.517736 34.527404 34.535208 34.541010 34.544910 34.546840 34.546833 34.544889 34.540973 34.535156 34.527335 34.517649 34.505929 34.492386 34.476785 34.459407 34.439957 34.418784 34.395538 34.370636 34.343677 34.315147 34.284596 34.252577 34.218600 34.183283 34.146100 34.107731 34.067619 34.026501 33.983800 33.940303 33.895414 33.849969 33.803357 33.756454 33.708640 33.660825 33.612384 33.564248 33.515795 33.467969 33.420151 33.373290 33.326773 33.281546 33.237004 33.194077 33.152175 33.112205 33.073590 33.037205 33.002491 32.970284 32.940043 32.912558 32.887309 32.865036 32.845239 32.828604 32.814652 32.804013 32.796230 32.791871 32.790503 32.792634 32.797854 32.806606 32.818504 32.833932 32.852522 32.874598 32.899813 32.928433 32.960128 32.995108 33.033059 33.074139 33.118048 33.164893 33.214386 33.266590 33.321226 33.378313 33.437583 33.499015 33.562351 33.627532 33.694310 33.762595 33.832147 33.902846 33.974465 34.046856 34.119805 34.193142 34.266667
34.644444 34.559380 34.474539 34.390163 34.306453 34.223668 34.141979 34.061665 33.982863 33.905864 33.830772 33.757890 33.687280 33.619259 33.553843 33.491363 33.431786 33.375453 33.322280 33.272623 33.226338 33.183798 33.144797 33.109726 33.078315 33.050973 33.027361 33.007911 32.992213 32.980719 32.972950 32.969382 32.969459 32.973684 32.981428 32.993218 33.008353 33.027384 33.049541 33.075399 33.104120 33.136304 33.171048 33.208977 33.249129 33.292152 33.337033 33.384439 33.433315 33.484345 33.536443 33.590307 33.644828 33.700718 33.756856 33.813962 33.870915 33.928444 33.985436 34.042623 34.098916 34.155042 34.209947 34.264352 34.317244 34.369332 34.419656 34.468905 34.516179 34.562145 34.605966 34.648277 34.688315 34.726676 34.762672 34.796853 34.828610 34.858443 34.885820 34.911183 34.934084 34.954899 34.973262 34.989481 35.003271 35.014866 35.024063 35.031021 35.035617 35.037931 35.037923 35.035591 35.030978 35.024002 35.014785 35.003168 34.989355 34.973110 34.954717 34.933869 34.910930 34.885525 34.858099 34.828213 34.796394 34.762143 34.726069 34.687619 34.647480 34.605057 34.561109 34.515002 34.467569 34.418143 34.367622 34.315315 34.262180 34.207507 34.152304 34.095850 34.039197 33.981615 33.924189 33.866187 33.808717 33.751048 33.694300 33.637748 33.582511 33.527875 33.474946 33.423024 33.373191 33.324764 33.278793 33.234610 33.193226 33.153993 33.117871 33.084235 33.053987 33.026528 33.002697 32.981918 32.964965 32.951288 32.941591 32.935350 32.933198 32.934638 32.940229 32.949501 32.962940 32.980101 33.001401 33.026417 33.055495 33.088236 33.124920 33.165165 33.209189 33.256628 33.307638 33.361872 33.419429 33.479976 33.543559 33.609858 33.678869 33.750284 33.824055 33.899884 33.977684 34.057168 34.138211 34.220539 34.303996 34.388320 34.473327 34.558771 34.644444
35.022222 34.925163 34.828372 34.732093 34.636616 34.542153 34.449017 34.357384 34.267584 34.179754 34.094238 34.011132 33.930794 33.853270 33.778933 33.707774 33.640182 33.576088 33.515899 33.459481 33.407258 33.359027 33.315232 33.275598 33.240589 33.209854 33.183880 33.162236 33.145435 33.132962 33.125356 33.122021 33.123521 33.129176 33.139579 33.153963 33.172952 33.195695 33.222845 33.253470 33.288250 33.326178 33.367961 33.412521 33.460591 33.511029 33.564591 33.620083 33.678280 33.737945 33.799873 33.862791 33.927513 33.992746 34.059315 34.125921 34.193397 34.260452 34.327923 34.394539 34.461138 34.526481 34.591400 34.654701 34.717206 34.777777 34.837218 34.894455 34.950269 35.003658 35.055373 35.104491 35.151722 35.196230 35.238677 35.278315 35.315751 35.350329 35.382592 35.411978 35.438959 35.463066 35.484695 35.503473 35.519713 35.533134 35.543964 35.552016 35.557428 35.560106 35.560097 35.557399 35.551967 35.543894 35.533042 35.519596 35.503329 35.484521 35.462858 35.438713 35.411689 35.382255 35.349937 35.315297 35.277790 35.238073 35.195536 35.150926 35.103580 35.054334 35.002475 34.948923 34.892928 34.835489 34.775823 34.715003 34.652219 34.588611 34.523352 34.457635 34.390624 34.323556 34.255589 34.187993 34.119926 34.052678 33.985411 33.919422 33.853882 33.790081 33.727204 33.666520 33.607229 33.550570 33.495761 33.443997 33.394520 33.348470 33.305112 33.265524 33.228999 33.196545 33.167481 33.142741 33.121675 33.105134 33.092499 33.084541 33.080670 33.081573 33.086689 33.096624 33.110844 33.129873 33.153205 33.181282 33.213626 33.250599 33.291747 33.337356 33.386996 33.440882 33.498600 33.560298 33.625583 33.694537 33.766782 33.842344 33.920858 34.002294 34.086303 34.172806 34.261466 34.352160 34.444565 34.538519 34.633713 34.729952 34.826941 34.924456 35.022222
35.400000 35.291016 35.182323 35.074237 34.967019 34.861008 34.756428 34.653642 34.552829 34.454371 34.358402 34.265320 34.175207 34.088479 34.005156 33.925675 33.849990 33.778555 33.711257 33.648567 33.590298 33.536942 33.488231 33.444681 33.405939 33.372546 33.344061 33.321053 33.302986 33.290460 33.282845 33.280770 33.283508 33.291722 33.304588 33.322799 33.345435 33.373223 33.405149 33.441971 33.482584 33.527778 33.576364 33.629160 33.684901 33.744432 33.806420 33.871736 33.938990 34.009073 34.080554 34.154344 34.228979 34.305386 34.382088 34.460022 34.537712 34.616103 34.693734 34.771553 34.848129 34.924409 34.999005 35.072857 35.144633 35.215259 35.283473 35.350176 35.414187 35.476375 35.535648 35.592834 35.646935 35.698731 35.747324 35.793434 35.836267 35.876476 35.913371 35.947530 35.978370 36.006386 36.031100 36.052918 36.071468 36.087059 36.099426 36.108779 36.114959 36.118070 36.118059 36.114926 36.108724 36.099348 36.086955 36.071336 36.052756 36.030905 36.006153 35.978094 35.947206 35.912991 35.876035 35.835756 35.792844 35.746644 35.697950 35.646040 35.591810 35.534479 35.475044 35.412674 35.348459 35.281529 35.213061 35.142154 35.070065 34.995868 34.920890 34.844189 34.767149 34.688821 34.610633 34.531633 34.453279 34.374621 34.297134 34.219876 34.144321 34.069539 33.996990 33.925759 33.857275 33.790646 33.727256 33.666234 33.608909 33.554437 33.504079 33.457018 33.414442 33.375562 33.341483 33.311449 33.286475 33.265838 33.250463 33.239657 33.234252 33.233591 33.238407 33.248077 33.263241 33.283307 33.308822 33.339225 33.374970 33.415527 33.461262 33.511671 33.567037 33.626879 33.691401 33.760143 33.833237 33.910241 33.991216 34.075739 34.163808 34.255015 34.349300 34.446270 34.545813 34.647551 34.751324 34.856771 34.963691 35.071741 35.180682 35.290192 35.400000
35.777778 35.656935 35.536434 35.416583 35.297751 35.180208 35.064350 34.950403 34.838786 34.729674 34.623507 34.520405 34.420827 34.324830 34.232895 34.145009 34.061671 33.982796 33.908904 33.839827 33.776109 33.717495 33.664556 33.616942 33.575252 33.539039 33.508931 33.484380 33.466045 33.453274 33.446759 33.445738 33.450941 33.461496 33.478167 33.499974 33.527717 33.560308 33.598582 33.641347 33.689473 33.741669 33.798837 33.859595 33.924874 33.993213 34.065571 34.140414 34.218729 34.298924 34.382008 34.466348 34.552972 34.640221 34.729138 34.818056 34.908029 34.997400 35.087227 35.175880 35.264419 35.351256 35.437447 35.521460 35.604340 35.684628 35.763346 35.839123 35.912949 35.983548 36.051872 36.116749 36.179080 36.237803 36.293762 36.346006 36.395310 36.440841 36.483294 36.521955 36.557428 36.589121 36.617540 36.642211 36.663536 36.681162 36.695378 36.705949 36.713051 36.716567 36.716555 36.713015 36.705888 36.695291 36.681046 36.663390 36.642031 36.617322 36.588861 36.557121 36.521594 36.482873 36.440351 36.394742 36.345351 36.293007 36.236936 36.178086 36.115611 36.050574 35.982069 35.911267 35.837215 35.761186 35.682186 35.601585 35.518359 35.433961 35.347346 35.260041 35.170987 35.081768 34.991322 34.901275 34.810564 34.720842 34.631053 34.542858 34.455212 34.369769 34.285498 34.204028 34.124348 34.048044 33.974129 33.904133 33.837094 33.774474 33.715338 33.661068 33.610761 33.565709 33.525042 33.489956 33.459616 33.435114 33.415654 33.402220 33.394055 33.392035 33.395440 33.405040 33.420149 33.441433 33.468241 33.501134 33.539495 33.583786 33.633420 33.688762 33.749255 33.815172 33.885981 33.961871 34.042332 34.127472 34.216803 34.310358 34.407669 34.508700 34.613002 34.720475 34.830688 34.943487 35.058458 35.175397 35.293910 35.413748 35.534540 35.655999 35.777778
36.155556 36.022944 35.890694 35.759200 35.628784 35.499873 35.372742 35.247844 35.125403 35.005897 34.889491 34.776685 34.667579 34.562697 34.462064 34.366229 34.275135 34.189354 34.108745 34.033905 33.964598 33.901448 33.844121 33.793270 33.748454 33.710359 33.678434 33.653399 33.634586 33.622752 33.617111 33.618458 33.625884 33.640224 33.660446 33.687424 33.720006 33.759104 33.803447 33.853984 33.909331 33.970474 34.035920 34.106690 34.181195 34.260485 34.342886 34.429478 34.518515 34.611102 34.705437 34.802648 34.900895 35.001324 35.102076 35.204312 35.306174 35.408831 35.510446 35.612193 35.712274 35.811860 35.909212 36.005492 36.099034 36.190982 36.279761 36.366488 36.449687 36.530439 36.607381 36.681545 36.751688 36.818781 36.881708 36.941369 36.996777 37.048748 37.096427 37.140538 37.180357 37.216505 37.248390 37.276521 37.300439 37.320531 37.336471 37.348521 37.356483 37.360490 37.360477 37.356443 37.348454 37.336375 37.320404 37.300278 37.276323 37.248151 37.216219 37.180019 37.140141 37.095964 37.048209 36.996152 36.940648 36.880878 36.817827 36.750594 36.680294 36.605953 36.528812 36.447837 36.364389 36.277385 36.188297 36.096004 36.002081 35.905378 35.807559 35.707458 35.606811 35.504442 35.402146 35.298744 35.196071 35.092951 34.991239 34.889770 34.790399 34.691975 34.596334 34.502345 34.411806 34.323607 34.239493 34.158380 34.081940 34.009121 33.941510 33.878085 33.820340 33.767287 33.720313 33.678470 33.643032 33.613089 33.589800 33.572294 33.561610 33.556919 33.559140 33.567485 33.582752 33.604194 33.632491 33.666934 33.708091 33.755287 33.808982 33.868535 33.934299 34.005665 34.082889 34.165388 34.253325 34.346144 34.443921 34.546123 34.652747 34.763281 34.877650 34.995362 35.116278 35.239924 35.366103 35.494365 35.624457 35.755955 35.888560 36.021872 36.155556
36.533333 36.389034 36.245152 36.102064 35.960225 35.819963 35.681765 35.545906 35.412902 35.282965 35.156639 35.034070 34.915825 34.801973 34.693108 34.589216 34.490916 34.398102 34.311421 34.230667 34.156519 34.088662 34.027808 33.973528 33.926569 33.886382 33.853751 33.828003 33.809959 33.798817 33.795440 33.798890 33.810074 33.827919 33.853374 33.885230 33.924478 33.969776 34.022155 34.080145 34.144815 34.214573 34.290525 34.370963 34.457030 34.546915 34.641793 34.739764 34.842032 34.946628 35.054777 35.164461 35.276926 35.390121 35.505311 35.620435 35.736770 35.852268 35.968214 36.082592 36.196691 36.308550 36.419452 36.527510 36.633993 36.737107 36.838097 36.935277 37.029857 37.120270 37.207682 37.290653 37.370291 37.445296 37.516700 37.583347 37.646186 37.704203 37.758250 37.807462 37.852581 37.892886 37.929003 37.960356 37.987440 38.009825 38.027872 38.041293 38.050307 38.054770 38.054756 38.050263 38.041220 38.027767 38.009687 37.987265 37.960140 37.928742 37.892575 37.852213 37.807029 37.757745 37.703615 37.645505 37.582561 37.515795 37.444255 37.369098 37.289289 37.206124 37.118496 37.027840 36.932989 36.835506 36.734178 36.630688 36.523789 36.415270 36.303859 36.191438 36.076721 35.961664 35.844976 35.728666 35.611445 35.495357 35.379120 35.264790 35.151098 35.040091 34.930517 34.824392 34.720485 34.620762 34.524015 34.432142 34.343964 34.261290 34.182976 34.110730 34.043443 33.982709 33.927460 33.879167 33.836804 33.801715 33.772914 33.751615 33.736878 33.729781 33.729427 33.736765 33.750941 33.772771 33.801445 33.837651 33.880619 33.930916 33.987809 34.051746 34.122032 34.199001 34.281992 34.371234 34.466095 34.566705 34.672461 34.783401 34.898946 35.019053 35.143166 35.271165 35.402518 35.537036 35.674211 35.813794 35.955301 36.098430 36.242724 36.387834 36.533333
36.911111 36.755232 36.599788 36.445259 36.292031 36.140619 35.991357 35.844794 35.701198 35.561151 35.424850 35.292907 35.165440 35.043089 34.925885 34.814496 34.708857 34.609667 34.516757 34.430858 34.351688 34.280012 34.215426 34.158736 34.109407 34.068285 34.034701 34.009543 33.992001 33.983007 33.981607 33.988777 34.003415 34.026544 34.056911 34.095584 34.141162 34.194758 34.254825 34.322518 34.396151 34.476918 34.563000 34.655632 34.752874 34.855994 34.962947 35.075031 35.190116 35.309525 35.431059 35.556068 35.682305 35.811140 35.940304 36.071182 36.201508 36.332679 36.462454 36.592236 36.719834 36.846650 36.970567 37.092977 37.211856 37.328577 37.441227 37.551150 37.656560 37.758758 37.856095 37.949818 38.038427 38.123095 38.202479 38.277668 38.347476 38.412893 38.472893 38.528354 38.578410 38.623815 38.663862 38.699168 38.729187 38.754389 38.774384 38.789491 38.799477 38.804501 38.804485 38.799430 38.789412 38.774271 38.754239 38.728997 38.698935 38.663579 38.623478 38.578011 38.527885 38.472346 38.412257 38.346739 38.276817 38.201498 38.121968 38.037135 37.948340 37.854409 37.756836 37.654376 37.548672 37.438420 37.325404 37.208276 37.088946 36.966037 36.841568 36.714144 36.585876 36.455359 36.324780 36.192729 36.061443 35.929520 35.799222 35.669158 35.541593 35.415150 35.292073 35.171006 35.054147 34.940164 34.831186 34.725912 34.626384 34.531330 34.442689 34.359226 34.282759 34.212094 34.148918 34.092078 34.043125 34.000949 33.966958 33.940089 33.921601 33.910482 33.907841 33.912715 33.926068 33.946983 33.976282 34.013093 34.058102 34.110479 34.170778 34.238210 34.313202 34.395005 34.483925 34.579249 34.681172 34.789012 34.902861 35.022066 35.146624 35.275909 35.409833 35.547794 35.689626 35.834754 35.982940 36.133637 36.286545 36.441146 36.597084 36.753874 36.911111
37.288889 37.121527 36.954663 36.788747 36.624322 36.461780 36.301703 36.144420 35.990548 35.840342 35.694455 35.553061 35.416843 35.285885 35.160904 35.041883 34.929572 34.823845 34.725487 34.634254 34.550969 34.475258 34.407986 34.348644 34.298138 34.255815 34.222628 34.197772 34.182247 34.175092 34.177356 34.187917 34.207873 34.235938 34.273258 34.318384 34.372511 34.434027 34.504172 34.581176 34.666323 34.757693 34.856610 34.961017 35.072272 35.188194 35.310176 35.435927 35.566872 35.700634 35.838663 35.978518 36.121673 36.265650 36.411941 36.558055 36.705502 36.851807 36.998487 37.143112 37.287202 37.428396 37.568210 37.704377 37.838397 37.968119 38.095018 38.217074 38.335726 38.449102 38.558587 38.662468 38.762063 38.855827 38.944995 39.028191 39.106553 39.178880 39.246194 39.307470 39.363600 39.413734 39.458621 39.497585 39.531220 39.559021 39.581421 39.598081 39.609266 39.614806 39.614789 39.609216 39.597996 39.581299 39.558860 39.531016 39.497334 39.458318 39.413371 39.363171 39.306966 39.245605 39.178195 39.105760 39.027274 38.943939 38.854614 38.760673 38.660877 38.556771 38.447033 38.333374 38.214405 38.091995 37.964702 37.834543 37.700036 37.563332 37.422924 37.281074 37.136263 36.990847 36.843300 36.696048 36.547568 36.400328 36.252816 36.107516 35.962929 35.821530 35.681840 35.546294 35.413436 35.285641 35.161479 35.043237 34.929519 34.822505 34.720833 34.626559 34.538360 34.458155 34.384662 34.319654 34.261893 34.212995 34.171772 34.139680 34.115579 34.100766 34.094152 34.096870 34.107886 34.128174 34.156749 34.194432 34.240288 34.294990 34.357648 34.428794 34.507583 34.594412 34.688478 34.790053 34.898368 35.013580 35.134955 35.262541 35.395637 35.534191 35.677532 35.825518 35.977508 36.133278 36.292218 36.454033 36.618141 36.784184 36.951615 37.120020 37.288889
37.666667 37.487949 37.309747 37.132626 36.957042 36.783609 36.612717 36.445020 36.280835 36.120853 35.965308 35.814929 35.669857 35.530855 35.397962 35.271979 35.152829 35.041353 34.937351 34.841704 34.754078 34.675397 34.605184 34.544410 34.492445 34.450308 34.417210 34.394219 34.380379 34.376811 34.382386 34.398275 34.423174 34.458307 34.502188 34.556094 34.618361 34.690313 34.770111 34.859127 34.955350 35.060197 35.171498 35.290709 35.415513 35.547403 35.683935 35.826633 35.972945 36.124423 36.278435 36.436557 36.596099 36.758661 36.921526 37.086310 37.250302 37.415129 37.578114 37.740893 37.900852 38.059628 38.214696 38.367685 38.516188 38.661814 38.802292 38.939201 39.070425 39.197494 39.318464 39.434802 39.544742 39.649672 39.748012 39.841051 39.927399 40.008231 40.082345 40.150787 40.212544 40.268512 40.317869 40.361349 40.398315 40.429329 40.453938 40.472520 40.484805 40.490984 40.490966 40.484751 40.472429 40.453807 40.429157 40.398097 40.361080 40.317544 40.268124 40.212084 40.150247 40.081715 40.007497 39.926549 39.840070 39.746881 39.648373 39.543253 39.433098 39.316519 39.195278 39.067905 38.936342 38.799055 38.658154 38.512059 38.363036 38.209470 38.053765 37.894288 37.733557 37.569929 37.406016 37.240173 37.075075 36.909085 36.744911 36.580931 36.419856 36.260080 36.104288 35.950897 35.802536 35.657648 35.518781 35.384405 35.256962 35.134958 35.020705 34.912748 34.813254 34.720809 34.637425 34.561731 34.495571 34.437625 34.389562 34.350115 34.320777 34.300332 34.290098 34.288914 34.297925 34.316023 34.344182 34.381351 34.428337 34.484143 34.549417 34.623212 34.706027 34.796962 34.896375 35.003408 35.118290 35.240200 35.369247 35.504647 35.646396 35.793746 35.946589 36.104211 36.266414 36.432514 36.602229 36.774913 36.950208 37.127503 37.306378 37.486258 37.666667