# vtk DataFile Version 3.0
Steady-state temperature (Jacobi)
ASCII
DATASET STRUCTURED_POINTS
DIMENSIONS 181 181 1
ORIGIN 0.0 0.0 0.0
SPACING 0.05 0.05 1.0
POINT_DATA 32761
SCALARS Temperature float 1
LOOKUP_TABLE default
32.000000 32.000000 32.000000 32.000000 32.000000 32.000000 32.000000 32.000000
32.000000 32.000000 32.000000 32.000000 32.000000 32.000000 32.000000 32.000000
32.000000 32.000000 32.000000 32.000000 32.000000 32.000000 32.000000 32.000000
32.000000 32.000000 32.000000 32.000000 32.000000 32.000000 32.000000 32.000000
32.000000 32.000000 32.000000 32.000000 32.000000 32.000000 32.000000 32.000000
32.000000 32.000000 32.000000 32.000000 32.000000 32.000000 32.000000 32.000000
32.000000 32.000000 32.000000 32.000000 32.000000 32.000000 32.000000 32.000000
32.000000 32.000000 32.000000 32.000000 32.000000 32.000000 32.000000 32.000000
32.000000 32.000000 32.000000 32.000000 32.000000 32.000000 32.000000 32.000000
32.000000 32.000000 32.000000 32.000000 32.000000 32.000000 32.000000 32.000000
32.000000 32.000000 32.000000 32.000000 32.000000 32.000000 32.000000 32.000000
32.000000 32.000000 32.000000 32.000000 32.000000 32.000000 32.000000 32.000000
32.000000 32.000000 32.000000 32.000000 32.000000 32.000000 32.000000 32.000000
32.000000 32.000000 32.000000 32.000000 32.000000 32.000000 32.000000 32.000000
32.000000 32.000000 32.000000 32.000000 32.000000 32.000000 32.000000 32.000000
32.000000 32.000000 32.000000 32.000000 32.000000 32.000000 32.000000 32.000000
32.000000 32.000000 32.000000 32.000000 32.000000 32.000000 32.000000 32.000000
32.000000 32.000000 32.000000 32.000000 32.000000 32.000000 32.000000 32.000000
32.000000 32.000000 32.000000 32.000000 32.000000 32.000000 32.000000 32.000000
32.000000 32.000000 32.000000 32.000000 32.000000 32.000000 32.000000 32.000000
32.000000 32.000000 32.000000 32.000000 32.000000 32.000000 32.000000 32.000000
32.000000 32.000000 32.000000 32.000000 32.000000 32.000000 32.000000 32.000000
32.000000 32.000000 32.000000 32.000000 32.000000
32.377778 32.361089 32.344451 32.327916 32.311535 32.295356 32.279426 32.263791
32.248492 32.233570 32.219061 32.204999 32.191411 32.178326 32.165764 32.153745
32.142280 32.131385 32.121061 32.111318 32.102150 32.093560 32.085535 32.078075
32.071159 32.064785 32.058927 32.053579 32.048712 32.044319 32.040366 32.036850
32.033730 32.031007 32.028637 32.026624 32.024920 32.023535 32.022417 32.021580
32.020972 32.020610 32.020440 32.020485 32.020686 32.021073 32.021585 32.022255
32.023022 32.023921 32.024891 32.025971 32.027096 32.028310 32.029548 32.030855
32.032165 32.033527 32.034874 32.036257 32.037609 32.038982 32.040312 32.041648
32.042931 32.044209 32.045424 32.046626 32.047759 32.048869 32.049907 32.050917
32.051852 32.052754 32.053582 32.054372 32.055090 32.055768 32.056377 32.056944
32.057444 32.057902 32.058297 32.058649 32.058942 32.059191 32.059385 32.059533
32.059629 32.059678 32.059678 32.059629 32.059533 32.059384 32.059191 32.058942
32.058649 32.058297 32.057901 32.057443 32.056943 32.056375 32.055767 32.055088
32.054369 32.053578 32.052750 32.051847 32.050910 32.049899 32.048859 32.047746
32.046611 32.045406 32.044186 32.042903 32.041614 32.040271 32.038932 32.037549
32.036185 32.034788 32.033424 32.032042 32.030708 32.029374 32.028105 32.026855
32.025688 32.024560 32.023535 32.022573 32.021735 32.020983 32.020380 32.019890
32.019573 32.019400 32.019427 32.019629 32.020062 32.020705 32.021610 32.022764
32.024215 32.025955 32.028029 32.030434 32.033213 32.036365 32.039932 32.043915
32.048351 32.053247 32.058633 32.064515 32.070922 32.077858 32.085346 32.093389
32.102001 32.111184 32.120946 32.131282 32.142192 32.153666 32.165697 32.178268
32.191362 32.204956 32.219025 32.233540 32.248467 32.263769 32.279409 32.295342
32.311524 32.327908 32.344446 32.361086 32.377778
32.755556 32.722177 32.688903 32.655834 32.623072 32.590714 32.558856 32.527585
32.496990 32.467146 32.438130 32.410005 32.382834 32.356663 32.331543 32.307504
32.284582 32.262790 32.242152 32.222664 32.204339 32.187157 32.171122 32.156199
32.142386 32.129635 32.117940 32.107242 32.097533 32.088745 32.080871 32.073835
32.067633 32.062183 32.057487 32.053455 32.050099 32.047322 32.045145 32.043466
32.042315 32.041586 32.041318 32.041400 32.041882 32.042648 32.043759 32.045091
32.046716 32.048507 32.050543 32.052693 32.055044 32.057463 32.060041 32.062644
32.065369 32.068082 32.070881 32.073634 32.076442 32.079174 32.081933 32.084593
32.087254 32.089797 32.092319 32.094708 32.097058 32.099265 32.101419 32.103425
32.105366 32.107156 32.108874 32.110443 32.111934 32.113279 32.114542 32.115666
32.116706 32.117613 32.118434 32.119132 32.119740 32.120233 32.120635 32.120929
32.121129 32.121226 32.121226 32.121129 32.120929 32.120635 32.120233 32.119740
32.119131 32.118433 32.117612 32.116704 32.115664 32.114540 32.113276 32.111929
32.110438 32.108868 32.107148 32.105356 32.103412 32.101403 32.099245 32.097034
32.094677 32.092282 32.089751 32.087199 32.084526 32.081851 32.079075 32.076322
32.073489 32.070708 32.067875 32.065123 32.062351 32.059694 32.057053 32.054562
32.052127 32.049881 32.047735 32.045818 32.044050 32.042555 32.041262 32.040290
32.039577 32.039237 32.039218 32.039629 32.040429 32.041721 32.043473 32.045786
32.048637 32.052121 32.056226 32.061040 32.066560 32.072869 32.079970 32.087940
32.096786 32.106579 32.117330 32.129097 32.141893 32.155768 32.170729 32.186816
32.204031 32.222398 32.241913 32.262585 32.284399 32.307349 32.331406 32.356547
32.382732 32.409920 32.438056 32.467085 32.496937 32.527543 32.558820 32.590686
32.623050 32.655818 32.688892 32.722172 32.755556
33.133333 33.083267 33.033356 32.983755 32.934613 32.886078 32.838291 32.791389
32.745496 32.700736 32.657213 32.615031 32.574275 32.535028 32.497349 32.461301
32.426919 32.394247 32.363291 32.334079 32.306593 32.280845 32.256795 32.234442
32.213726 32.194639 32.177101 32.161102 32.146545 32.133420 32.121618 32.111131
32.101840 32.093744 32.086714 32.080760 32.075741 32.071683 32.068436 32.066039
32.064333 32.063375 32.062997 32.063270 32.064019 32.065332 32.067025 32.069200
32.071666 32.074539 32.077623 32.081044 32.084601 32.088430 32.092328 32.096438
32.100555 32.104830 32.109057 32.113389 32.117627 32.121925 32.126087 32.130269
32.134281 32.138276 32.142077 32.145830 32.149370 32.152838 32.156081 32.159232
32.162152 32.164965 32.167548 32.170013 32.172252 32.174367 32.176264 32.178031
32.179591 32.181018 32.182249 32.183346 32.184259 32.185034 32.185636 32.186098
32.186397 32.186551 32.186551 32.186397 32.186098 32.185636 32.185033 32.184258
32.183345 32.182248 32.181016 32.179588 32.178028 32.176260 32.174362 32.172246
32.170005 32.167538 32.164953 32.162136 32.159213 32.156057 32.152809 32.149334
32.145785 32.142021 32.138208 32.134198 32.130167 32.125964 32.121776 32.117448
32.113173 32.108797 32.104520 32.100186 32.095999 32.091808 32.087816 32.083878
32.080195 32.076630 32.073381 32.070319 32.067638 32.065220 32.063253 32.061631
32.060536 32.059876 32.059824 32.060305 32.061483 32.063299 32.065910 32.069272
32.073533 32.078666 32.084809 32.091950 32.100219 32.109615 32.120257 32.132155
32.145418 32.160061 32.176180 32.193793 32.212983 32.233764 32.256203 32.280309
32.306128 32.333660 32.362931 32.393924 32.426644 32.461057 32.497141 32.534845
32.574121 32.614897 32.657101 32.700639 32.745417 32.791322 32.838237 32.886034
32.934580 32.983730 33.033341 33.083260 33.133333
33.511111 33.444359 33.377813 33.311680 33.246160 33.181449 33.117738 33.055203
32.994020 32.934341 32.876320 32.820081 32.765751 32.713425 32.663203 32.615145
32.569323 32.525766 32.484520 32.445579 32.408967 32.374647 32.342626 32.312836
32.285272 32.259841 32.236528 32.215218 32.195895 32.178422 32.162789 32.148842
32.136576 32.125823 32.116593 32.108703 32.102178 32.096823 32.092684 32.089552
32.087492 32.086286 32.086021 32.086465 32.087726 32.089563 32.092104 32.095096
32.098687 32.102616 32.107046 32.111708 32.116782 32.121990 32.127526 32.133109
32.138941 32.144741 32.150717 32.156592 32.162577 32.168400 32.174274 32.179935
32.185593 32.190999 32.196358 32.201433 32.206423 32.211108 32.215678 32.219933
32.224048 32.227844 32.231483 32.234808 32.237963 32.240813 32.243486 32.245865
32.248064 32.249984 32.251720 32.253195 32.254482 32.255524 32.256373 32.256994
32.257416 32.257622 32.257622 32.257416 32.256993 32.256373 32.255523 32.254480
32.253194 32.251718 32.249982 32.248061 32.245861 32.243481 32.240806 32.237955
32.234797 32.231470 32.227828 32.224027 32.219907 32.215646 32.211069 32.206374
32.201373 32.196284 32.190909 32.185482 32.179800 32.174110 32.168202 32.162337
32.156304 32.150371 32.144328 32.138448 32.132524 32.126832 32.121171 32.115817
32.110576 32.105722 32.101071 32.096891 32.093014 32.089697 32.086790 32.084542
32.082819 32.081860 32.081551 32.082121 32.083477 32.085835 32.089125 32.093552
32.099067 32.105862 32.113910 32.123390 32.134292 32.146785 32.160872 32.176708
32.194306 32.213807 32.235229 32.258695 32.284225 32.311919 32.341792 32.373921
32.408312 32.445012 32.484012 32.525330 32.568935 32.614814 32.662910 32.713178
32.765534 32.819899 32.876162 32.934211 32.993908 33.055113 33.117662 33.181390
33.246114 33.311646 33.377791 33.444348 33.511111
33.888889 33.805452 33.722274 33.639611 33.557715 33.476832 33.397197 33.319037
33.242562 33.167975 33.095453 33.025170 32.957265 32.891879 32.829110 32.769065
32.711801 32.657391 32.605849 32.557220 32.511476 32.468637 32.428637 32.391477
32.357055 32.325361 32.296262 32.269742 32.245640 32.223942 32.204464 32.187200
32.171944 32.158704 32.147256 32.137628 32.129577 32.123154 32.118100 32.114491
32.112053 32.110889 32.110709 32.111643 32.113386 32.116095 32.119452 32.123636
32.128317 32.133698 32.139437 32.145756 32.152304 32.159322 32.166451 32.173944
32.181443 32.189209 32.196883 32.204737 32.212415 32.220190 32.227718 32.235271
32.242518 32.249727 32.256584 32.263348 32.269728 32.275972 32.281811 32.287479
32.292733 32.297790 32.302432 32.306860 32.310882 32.314678 32.318082 32.321252
32.324050 32.326608 32.328816 32.330780 32.332416 32.333804 32.334884 32.335710
32.336247 32.336521 32.336521 32.336247 32.335710 32.334884 32.333803 32.332415
32.330779 32.328814 32.326605 32.324046 32.321247 32.318076 32.314670 32.310872
32.306847 32.302416 32.297769 32.292707 32.287447 32.281771 32.275923 32.269667
32.263273 32.256491 32.249613 32.242380 32.235102 32.227513 32.219941 32.212115
32.204376 32.196451 32.188692 32.180827 32.173212 32.165584 32.158298 32.151099
32.144341 32.137781 32.131767 32.126072 32.121033 32.116444 32.112630 32.109407
32.107086 32.105508 32.104970 32.105339 32.106897 32.109539 32.113531 32.118794
32.125583 32.133843 32.143812 32.155461 32.169013 32.184459 32.202004 32.221656
32.243602 32.267861 32.294597 32.323834 32.355712 32.390253 32.427568 32.467669
32.510636 32.556465 32.605198 32.656809 32.711303 32.768624 32.828735 32.891549
32.956987 33.024928 33.095251 33.167801 33.242419 33.318916 33.397100 33.476754
33.557655 33.639567 33.722245 33.805438 33.888889
34.266667 34.166548 34.066740 33.967549 33.869282 33.772228 33.676676 33.582890
33.491134 33.401638 33.314631 33.230301 33.148841 33.070391 32.995102 32.923067
32.854395 32.789126 32.727335 32.669011 32.614194 32.562827 32.514924 32.470382
32.429198 32.391228 32.356460 32.324714 32.295976 32.270035 32.246882 32.226282
32.208238 32.192489 32.179061 32.167669 32.158367 32.150847 32.145192 32.141076
32.138612 32.137456 32.137753 32.139140 32.141796 32.145337 32.149974 32.155306
32.161574 32.168360 32.175930 32.183855 32.192423 32.201193 32.210474 32.219818
32.229548 32.239216 32.249153 32.258916 32.268843 32.278499 32.288222 32.297592
32.306945 32.315880 32.324724 32.333101 32.341327 32.349052 32.356577 32.363584
32.370354 32.376599 32.382581 32.388045 32.393226 32.397905 32.402290 32.406195
32.409799 32.412949 32.415792 32.418209 32.420316 32.422023 32.423414 32.424429
32.425121 32.425458 32.425458 32.425120 32.424429 32.423413 32.422022 32.420314
32.418207 32.415789 32.412945 32.409794 32.406190 32.402283 32.397896 32.393214
32.388029 32.382561 32.376575 32.370323 32.363546 32.356530 32.348993 32.341253
32.333011 32.324613 32.315743 32.306778 32.297389 32.287975 32.278201 32.268483
32.258484 32.248634 32.238595 32.228808 32.218940 32.209433 32.199964 32.190976
32.182157 32.173944 32.166043 32.158879 32.152183 32.146364 32.141179 32.137020
32.133672 32.131512 32.130353 32.130555 32.131963 32.134918 32.139300 32.145428
32.153216 32.162965 32.174618 32.188459 32.204458 32.222876 32.243709 32.267195
32.293347 32.322378 32.354311 32.389332 32.427465 32.468863 32.513544 32.561626
32.613111 32.668074 32.726495 32.788405 32.853752 32.922519 32.994618 33.069981
33.148482 33.230000 33.314369 33.401422 33.490949 33.582740 33.676551 33.772130
33.869205 33.967495 34.066703 34.166530 34.266667
34.644444 34.527647 34.411211 34.295499 34.180860 34.067643 33.956173 33.846774
33.739735 33.635345 33.533850 33.435496 33.340476 33.248992 33.161179 33.077191
32.997105 32.921029 32.848980 32.781027 32.717127 32.657316 32.601497 32.549678
32.501716 32.457602 32.417147 32.380336 32.346940 32.316949 32.290099 32.266394
32.245535 32.227550 32.212112 32.199275 32.188687 32.180435 32.174142 32.169932
32.167402 32.166716 32.167447 32.169798 32.173317 32.178246 32.184111 32.191190
32.198987 32.207812 32.217152 32.227346 32.237866 32.249075 32.260435 32.272327
32.284211 32.296482 32.308599 32.320968 32.333056 32.345273 32.357099 32.368943
32.380307 32.391591 32.402327 32.412901 32.422876 32.432624 32.441741 32.450578
32.458771 32.466647 32.473879 32.480768 32.487027 32.492925 32.498218 32.503139
32.507485 32.511454 32.514881 32.517926 32.520463 32.522614 32.524288 32.525568
32.526400 32.526825 32.526824 32.526399 32.525567 32.524287 32.522612 32.520461
32.517924 32.514877 32.511450 32.507480 32.503132 32.498209 32.492914 32.487013
32.480750 32.473856 32.466618 32.458735 32.450534 32.441685 32.432555 32.422791
32.412796 32.402197 32.391433 32.380112 32.368706 32.356812 32.344925 32.332637
32.320464 32.307994 32.295758 32.283349 32.271302 32.259220 32.247641 32.236178
32.225365 32.214834 32.205108 32.195843 32.187546 32.179901 32.173395 32.167745
32.163418 32.160166 32.158430 32.158002 32.159301 32.162156 32.166964 32.173592
32.182412 32.193333 32.206701 32.222460 32.240933 32.262092 32.286236 32.313363
32.343741 32.377385 32.414532 32.455206 32.499608 32.547759 32.599819 32.655798
32.715810 32.779842 32.847960 32.920117 32.996325 33.076499 33.160591 33.248474
33.340040 33.435116 33.533533 33.635072 33.739511 33.846584 33.956022 34.067519
34.180767 34.295429 34.411167 34.527624 34.644444
35.022222 34.888749 34.755691 34.623458 34.492457 34.363076 34.235701 34.110686
33.988381 33.869095 33.753135 33.640752 33.532204 33.427679 33.327383 33.231436
33.139990 33.053097 32.970861 32.893266 32.820374 32.752103 32.688483 32.629371
32.574774 32.524495 32.478528 32.436628 32.398789 32.364722 32.334432 32.307590
32.284223 32.263966 32.246876 32.232554 32.221095 32.212068 32.205609 32.201257
32.199192 32.198925 32.200680 32.203937 32.208967 32.215223 32.223017 32.231774
32.241848 32.252640 32.264538 32.276922 32.290214 32.303776 32.318054 32.332404
32.347291 32.362068 32.377212 32.392083 32.407166 32.421834 32.436573 32.450776
32.464927 32.478445 32.491803 32.504457 32.516862 32.528515 32.539847 32.550401
32.560582 32.569977 32.578961 32.587170 32.594943 32.601965 32.608536 32.614390
32.619785 32.624502 32.628756 32.632372 32.635521 32.638074 32.640152 32.641671
32.642703 32.643207 32.643206 32.642702 32.641670 32.640151 32.638073 32.635519
32.632370 32.628752 32.624497 32.619779 32.614382 32.608526 32.601952 32.594927
32.587149 32.578935 32.569944 32.560541 32.550350 32.539784 32.528436 32.516765
32.504337 32.491655 32.478264 32.464705 32.450506 32.436245 32.421437 32.406687
32.391506 32.376520 32.361241 32.346306 32.331233 32.316667 32.302137 32.288285
32.274659 32.261889 32.249550 32.238256 32.227610 32.218204 32.209679 32.202600
32.196646 32.192357 32.189455 32.188449 32.189108 32.191911 32.196672 32.203843
32.213283 32.225414 32.240139 32.257851 32.278492 32.302424 32.329622 32.360416
32.394805 32.433086 32.475272 32.521619 32.572148 32.627068 32.686393 32.750283
32.818732 32.891846 32.969589 33.052004 33.139017 33.230606 33.326650 33.427060
33.531661 33.640296 33.752740 33.868768 33.988102 34.110459 34.235512 34.362928
34.492340 34.623375 34.755635 34.888722 35.022222
35.400000 35.249856 35.100178 34.951432 34.804069 34.658537 34.515256 34.374642
34.237069 34.102910 33.972480 33.846100 33.724018 33.606496 33.493708 33.385858
33.283041 33.185405 33.092969 33.005829 32.923928 32.847320 32.775879 32.709626
32.648371 32.592116 32.540611 32.493855 32.451542 32.413680 32.379914 32.350271
32.324355 32.302222 32.283434 32.268088 32.255707 32.246434 32.239753 32.235859
32.234199 32.235020 32.237732 32.242636 32.249106 32.257493 32.267139 32.278440
32.290708 32.304383 32.318748 32.334283 32.350247 32.367153 32.384244 32.402060
32.419837 32.438131 32.456182 32.474557 32.492508 32.510607 32.528125 32.545632
32.562430 32.579080 32.594919 32.610494 32.625186 32.639520 32.652928 32.665904
32.677936 32.689483 32.700089 32.710175 32.719341 32.727966 32.735708 32.742897
32.749246 32.755038 32.760040 32.764479 32.768180 32.771313 32.773754 32.775618
32.776830 32.777448 32.777448 32.776829 32.775617 32.773753 32.771311 32.768178
32.764476 32.760036 32.755032 32.749240 32.742888 32.735697 32.727952 32.719323
32.710151 32.700059 32.689446 32.677890 32.665847 32.652856 32.639431 32.625076
32.610358 32.594752 32.578875 32.562181 32.545328 32.527756 32.510160 32.491969
32.473908 32.455403 32.437201 32.418728 32.400742 32.382684 32.365309 32.348077
32.331736 32.315768 32.300907 32.286666 32.273755 32.261725 32.251256 32.241943
32.234434 32.228370 32.224366 32.222113 32.222191 32.224343 32.229113 32.236298
32.246408 32.259290 32.275417 32.294687 32.317536 32.343905 32.374192 32.408372
32.446805 32.489489 32.536741 32.588572 32.645250 32.706787 32.773396 32.845076
32.921979 33.004078 33.091459 33.184058 33.281887 33.384835 33.492839 33.605731
33.723373 33.845538 33.972011 34.102506 34.236737 34.374362 34.515032 34.658355
34.803932 34.951330 35.100113 35.249823 35.400000
35.777778 35.610968 35.444678 35.279421 35.115708 34.954024 34.794853 34.638637
34.485819 34.336783 34.191916 34.051533 33.915960 33.785432 33.660211 33.540447
33.426336 33.317943 33.215407 33.118703 33.027920 32.942954 32.863853 32.790434
32.722722 32.660462 32.603667 32.552019 32.505534 32.463835 32.426956 32.394468
32.366432 32.342372 32.322391 32.305964 32.293243 32.283660 32.277423 32.273917
32.273410 32.275244 32.279746 32.286214 32.295036 32.305466 32.317949 32.331698
32.347212 32.363667 32.381607 32.400180 32.419968 32.440096 32.461181 32.482331
32.504190 32.525863 32.548008 32.569740 32.591727 32.613101 32.634532 32.655181
32.675710 32.695324 32.714667 32.732992 32.750924 32.767770 32.784124 32.799356
32.814025 32.827564 32.840489 32.852302 32.863469 32.873560 32.882988 32.891389
32.899120 32.905882 32.911971 32.917151 32.921654 32.925308 32.928278 32.930450
32.931924 32.932645 32.932645 32.931924 32.930449 32.928276 32.925306 32.921652
32.917147 32.911966 32.905876 32.899112 32.891379 32.882975 32.873544 32.863449
32.852276 32.840457 32.827523 32.813974 32.799292 32.784044 32.767671 32.750802
32.732842 32.714482 32.695097 32.675433 32.654843 32.634121 32.612605 32.591128
32.569019 32.547143 32.524829 32.502958 32.480867 32.459446 32.438048 32.417557
32.397350 32.378296 32.359805 32.342721 32.326493 32.311933 32.298536 32.287076
32.277101 32.269343 32.263406 32.259982 32.258730 32.260301 32.264415 32.271678
32.281874 32.295564 32.312589 32.333468 32.358095 32.386946 32.419960 32.457567
32.499741 32.546864 32.598934 32.656279 32.718905 32.787085 32.860816 32.940307
33.025536 33.116639 33.213559 33.316355 33.424925 33.539242 33.659148 33.784532
33.915172 34.050871 34.191343 34.336308 34.485414 34.638308 34.794578 34.953809
35.115539 35.279301 35.444598 35.610929 35.777778
36.155556 35.972086 35.789188 35.607431 35.427368 35.249549 35.074486 34.902693
34.734626 34.570744 34.411434 34.257092 34.108020 33.964545 33.826879 33.695278
33.569859 33.450811 33.338154 33.232019 33.132332 33.039175 32.952386 32.872012
32.797809 32.729805 32.667681 32.611462 32.560759 32.515613 32.475569 32.440697
32.410485 32.385043 32.363804 32.346929 32.333798 32.324635 32.318762 32.316470
32.317031 32.320801 32.326999 32.336051 32.347123 32.360706 32.375917 32.393308
32.411949 32.432448 32.453836 32.476768 32.500242 32.524956 32.549885 32.575758
32.601539 32.627982 32.654052 32.680518 32.706361 32.732355 32.757509 32.782594
32.806660 32.830466 32.853113 32.875339 32.896308 32.916727 32.935828 32.954281
32.971392 32.987786 33.002846 33.017142 33.030139 33.042346 33.053307 33.063467
33.072445 33.080621 33.087685 33.093946 33.099168 33.103583 33.107024 33.109649
33.111357 33.112228 33.112228 33.111357 33.109648 33.107023 33.103581 33.099165
33.093942 33.087680 33.080614 33.072437 33.063456 33.053293 33.042329 33.030116
33.017114 33.002810 32.987741 32.971336 32.954210 32.935740 32.916618 32.896174
32.875173 32.852909 32.830216 32.806355 32.782222 32.757058 32.731809 32.705702
32.679725 32.653101 32.626844 32.600183 32.574147 32.547977 32.522703 32.497590
32.473655 32.450193 32.428200 32.407009 32.387582 32.369300 32.353083 32.338368
32.326026 32.315556 32.307780 32.302259 32.299765 32.299927 32.303465 32.310077
32.320431 32.334294 32.352281 32.374224 32.400687 32.431558 32.467350 32.507996
32.553956 32.605198 32.662124 32.724722 32.793330 32.867941 32.948823 33.035958
33.129536 33.229510 33.335989 33.448880 33.568205 33.693813 33.825633 33.963450
34.107096 34.256287 34.410763 34.570167 34.734151 34.902292 35.074166 35.249288
35.427171 35.607284 35.789094 35.972039 36.155556
36.533333 36.333210 36.133714 35.935459 35.739062 35.545107 35.354176 35.166801
34.983517 34.804785 34.631075 34.462764 34.300252 34.143818 33.993785 33.850333
33.713709 33.583985 33.461344 33.345752 33.237333 33.135954 33.041696 32.954330
32.873910 32.800119 32.733002 32.672162 32.617652 32.569000 32.526284 32.488963
32.457159 32.430262 32.408448 32.391046 32.378295 32.369461 32.364855 32.363680
32.366324 32.371925 32.380947 32.392468 32.407027 32.423640 32.442916 32.463814
32.487010 32.511409 32.537746 32.564882 32.593602 32.622734 32.653104 32.683518
32.714834 32.745855 32.777456 32.808451 32.839728 32.870125 32.900532 32.929826
32.958890 32.986654 33.013982 33.039872 33.065156 33.088910 33.111928 33.133369
33.153977 33.173001 33.191129 33.207699 33.223336 33.237468 33.250650 33.262399
33.273193 33.282637 33.291128 33.298354 33.304629 33.309721 33.313855 33.316881
33.318933 33.319936 33.319936 33.318932 33.316880 33.313854 33.309718 33.304625
33.298350 33.291122 33.282630 33.273184 33.262387 33.250635 33.237449 33.223312
33.207668 33.191090 33.172952 33.153916 33.133292 33.111833 33.088792 33.065009
33.039691 33.013760 32.986382 32.958557 32.929421 32.900039 32.869529 32.839009
32.807586 32.776418 32.744614 32.713356 32.681761 32.651022 32.620277 32.590709
32.561486 32.533773 32.506775 32.481621 32.457567 32.435697 32.415323 32.397476
32.381532 32.368464 32.357720 32.350209 32.345456 32.344308 32.346366 32.352417
32.362138 32.376256 32.394521 32.417601 32.445316 32.478272 32.516349 32.560092
32.609428 32.664839 32.726285 32.794179 32.868495 32.949574 33.037389 33.132197
33.233952 33.342823 33.458725 33.581733 33.711708 33.848624 33.992279 34.142541
34.299135 34.461827 34.630263 34.804112 34.982943 35.166335 35.353788 35.544803
35.738823 35.935289 36.133600 36.333155 36.533333
36.911111 36.694344 36.478253 36.263516 36.050786 35.840716 35.633914 35.430989
35.232482 35.038942 34.850823 34.668603 34.492638 34.323324 34.160909 34.005709
33.857858 33.717596 33.584943 33.460071 33.342887 33.233511 33.131744 33.037668
32.950983 32.871756 32.799592 32.734560 32.676178 32.624539 32.579078 32.539929
32.506450 32.478829 32.456350 32.439270 32.426798 32.419270 32.415821 32.416869
32.421476 32.430144 32.441862 32.457218 32.475124 32.496252 32.519443 32.545444
32.573033 32.603023 32.634134 32.667242 32.701019 32.736391 32.771998 32.808806
32.845440 32.882894 32.919794 32.957153 32.993618 33.030208 33.065609 33.100833
33.134625 33.167980 33.199712 33.230791 33.260112 33.288608 33.315266 33.340970
33.364806 33.387599 33.408540 33.428382 33.446422 33.463337 33.478526 33.492582
33.505007 33.516301 33.526064 33.534704 33.541913 33.547999 33.552747 33.556363
33.558718 33.559917 33.559917 33.558718 33.556362 33.552745 33.547997 33.541909
33.534700 33.526058 33.516293 33.504997 33.492570 33.478510 33.463316 33.446396
33.428349 33.408498 33.387546 33.364740 33.340886 33.315163 33.288479 33.259954
33.230595 33.199472 33.167685 33.134264 33.100394 33.065075 33.029562 32.992839
32.956216 32.918670 32.881550 32.843839 32.806903 32.769744 32.733728 32.697885
32.663563 32.629830 32.598002 32.567195 32.538677 32.511623 32.487242 32.464776
32.445370 32.428339 32.414756 32.404018 32.397126 32.393562 32.394251 32.398764
32.407953 32.421474 32.440110 32.463596 32.492645 32.527065 32.567501 32.613821
32.666598 32.725749 32.791770 32.864608 32.944681 33.031946 33.126733 33.228990
33.338955 33.456546 33.581898 33.714885 33.855533 34.003652 34.159158 34.321787
34.491341 34.667474 34.849881 35.038131 35.231816 35.430427 35.633464 35.840350
36.050509 36.263310 36.478122 36.694277 36.911111
37.288889 37.055485 36.822814 36.591597 36.362554 36.136369 35.913725 35.695246
35.481558 35.273201 35.070732 34.874590 34.685250 34.503038 34.328345 34.161375
34.002435 33.851606 33.709120 33.574932 33.449212 33.331797 33.222810 33.121973
33.029385 32.944661 32.867894 32.798600 32.736889 32.682183 32.634630 32.593560
32.559180 32.530733 32.508494 32.491624 32.480479 32.474133 32.473036 32.476172
32.484087 32.495677 32.511584 32.530617 32.553508 32.578982 32.607859 32.638782
32.672651 32.708036 32.745909 32.784777 32.825672 32.867058 32.910012 32.952970
32.997049 33.040676 33.084992 33.128438 33.172168 33.214657 33.257061 33.297910
33.338347 33.376976 33.414917 33.450861 33.485893 33.518806 33.550633 33.580281
33.608721 33.634976 33.659946 33.682772 33.704272 33.723705 33.741797 33.757927
33.772719 33.785665 33.797285 33.807179 33.815756 33.822721 33.828369 33.832504
33.835306 33.836677 33.836676 33.835305 33.832503 33.828367 33.822718 33.815753
33.807174 33.797279 33.785657 33.772708 33.757913 33.741780 33.723682 33.704243
33.682736 33.659901 33.634919 33.608650 33.580191 33.550522 33.518667 33.485722
33.450650 33.414658 33.376658 33.337959 33.297437 33.256487 33.213962 33.171329
33.127428 33.083782 33.039229 32.995324 32.950920 32.907584 32.864190 32.822297
32.780815 32.741273 32.702630 32.666364 32.631494 32.599437 32.569280 32.542364
32.517858 32.497020 32.479105 32.465286 32.454910 32.449064 32.447189 32.450288
32.457898 32.470937 32.489036 32.513030 32.542639 32.578616 32.620757 32.669736
32.725410 32.788371 32.858522 32.936366 33.021833 33.115335 33.216805 33.326555
33.444500 33.570847 33.705471 33.848465 33.999648 34.158993 34.326246 34.501259
34.683695 34.873283 35.069602 35.272263 35.480759 35.694595 35.913185 36.135946
36.362222 36.591359 36.822656 37.055408 37.288889
37.666667 37.416638 37.167392 36.919714 36.674360 36.432087 36.193599 35.959605
35.730728 35.507611 35.290779 35.080792 34.878060 34.683054 34.496059 34.317457
34.147398 33.986181 33.833824 33.690552 33.556250 33.431090 33.314828 33.207600
33.109043 33.019281 32.937835 32.864841 32.799713 32.742620 32.692873 32.650696
32.615302 32.586986 32.564862 32.549315 32.539359 32.535475 32.536578 32.543253
32.554313 32.570448 32.590367 32.614867 32.642554 32.674322 32.708681 32.746618
32.786550 32.829546 32.873945 32.920888 32.968650 33.018430 33.068461 33.119989
33.171224 33.223447 33.274869 33.326794 33.377460 33.428178 33.477239 33.525949
33.572671 33.618691 33.662469 33.705256 33.745622 33.784770 33.821393 33.856632
33.889312 33.920498 33.949150 33.976245 34.000881 34.023936 34.044642 34.063767
34.080676 34.096020 34.109288 34.121010 34.130795 34.139044 34.145482 34.150380
34.153572 34.155196 34.155195 34.153572 34.150378 34.145480 34.139041 34.130791
34.121004 34.109281 34.096011 34.080664 34.063753 34.044623 34.023912 34.000851
33.976207 33.949101 33.920436 33.889235 33.856536 33.821273 33.784621 33.745438
33.705030 33.662191 33.618351 33.572255 33.525442 33.476624 33.427433 33.376561
33.325712 33.273572 33.221896 33.169376 33.117793 33.065860 33.015358 32.965033
32.916643 32.868978 32.823753 32.779814 32.738810 32.699658 32.663927 32.630614
32.601197 32.574763 32.552692 32.534170 32.520473 32.510894 32.506607 32.507011
32.513181 32.524622 32.542311 32.565855 32.596137 32.632858 32.676806 32.727763
32.786424 32.852632 32.926989 33.009380 33.100307 33.199677 33.307884 33.424832
33.550804 33.685675 33.829609 33.982431 34.144180 34.314613 34.493637 34.680929
34.876265 35.079232 35.289476 35.506491 35.729807 35.958828 36.192977 36.431582
36.673976 36.919430 37.167210 37.416546 37.666667
38.044444 37.777800 37.511997 37.247861 36.986222 36.727861 36.473567 36.224051
35.980040 35.742151 35.511031 35.287181 35.071159 34.863335 34.664175 34.473908
34.292909 34.121266 33.959270 33.806864 33.664278 33.531313 33.408151 33.294462
33.190405 33.095521 33.009976 32.933185 32.865344 32.805753 32.754660 32.711250
32.675847 32.647523 32.626691 32.612313 32.604906 32.603316 32.608172 32.618203
32.634155 32.654637 32.680511 32.710267 32.744876 32.782713 32.824854 32.869562
32.918008 32.968356 33.021860 33.076599 33.133900 33.191777 33.251617 33.311394
33.372538 33.433012 33.494277 33.554314 33.614598 33.673157 33.731466 33.787627
33.843103 33.896091 33.948024 33.997221 34.045067 34.090016 34.133392 34.173795
34.212472 34.248176 34.282063 34.313039 34.342157 34.368477 34.392935 34.414741