<?xml version="1.0"?>
<VTKFile type="ImageData" version="0.1" byte_order="LittleEndian">
  <ImageData WholeExtent="0 180 0 180 0 0" Origin="0.0 0.0 0.0" Spacing="0.05 0.05 1">
    <Piece Extent="0 180 0 180 0 0">
      <PointData Scalars="Temperature">
        <DataArray type="Float32" Name="Temperature" format="ascii">
32.000000 32.000000 32.000000 32.000000 32.000000 32.000000 32.000000 32.000000 32.000000 32.000000 32.000000 32.000000 32.000000 32.000000 32.000000 32.000000 32.000000 32.000000 32.000000 32.000000 32.000000 32.000000 32.000000 32.000000 32.000000 32.000000 32.000000 32.000000 32.000000 32.000000 32.000000 32.000000 32.000000 32.000000 32.000000 32.000000 32.000000 32.000000 32.000000 32.000000 32.000000 32.000000 32.000000 32.000000 32.000000 32.000000 32.000000 32.000000 32.000000 32.000000 32.000000 32.000000 32.000000 32.000000 32.000000 32.000000 32.000000 32.000000 32.000000 32.000000 32.000000 32.000000 32.000000 32.000000 32.000000 32.000000 32.000000 32.000000 32.000000 32.000000 32.000000 32.000000 32.000000 32.000000 32.000000 32.000000 32.000000 32.000000 32.000000 32.000000 32.000000 32.000000 32.000000 32.000000 32.000000 32.000000 32.000000 32.000000 32.000000 32.000000 32.000000 32.000000 32.000000 32.000000 32.000000 32.000000 32.000000 32.000000 32.000000 32.000000 32.000000 32.000000 32.000000 32.000000 32.000000 32.000000 32.000000 32.000000 32.000000 32.000000 32.000000 32.000000 32.000000 32.000000 32.000000 32.000000 32.000000 32.000000 32.000000 32.000000 32.000000 32.000000 32.000000 32.000000 32.000000 32.000000 32.000000 32.000000 32.000000 32.000000 32.000000 32.000000 32.000000 32.000000 32.000000 32.000000 32.000000 32.000000 32.000000 32.000000 32.000000 32.000000 32.000000 32.000000 32.000000 32.000000 32.000000 32.000000 32.000000 32.000000 32.000000 32.000000 32.000000 32.000000 32.000000 32.000000 32.000000 32.000000 32.000000 32.000000 32.000000 32.000000 32.000000 32.000000 32.000000 32.000000 32.000000 32.000000 32.000000 32.000000 32.000000 32.000000 32.000000 32.000000 32.000000 32.000000 32.000000 32.000000 32.000000 32.000000 32.000000
32.377778 32.330487 32.284349 32.240435 32.199658 32.162718 32.130074 32.101932 32.078268 32.058858 32.043330 32.031214 32.021996 32.015157 32.010209 32.006720 32.004321 32.002713 32.001663 32.000995 32.000581 32.000331 32.000184 32.000100 32.000053 32.000027 32.000014 32.000007 32.000003 32.000001 32.000001 32.000000 32.000000 32.000000 32.000000 32.000000 32.000000 32.000000 32.000000 32.000000 32.000000 32.000000 32.000000 32.000000 32.000000 32.000000 32.000000 32.000000 32.000000 32.000000 32.000000 32.000000 32.000000 32.000000 32.000000 32.000000 32.000000 32.000000 32.000000 32.000000 32.000000 32.000000 32.000000 32.000000 32.000000 32.000000 32.000000 32.000000 32.000000 32.000000 32.000000 32.000000 32.000000 32.000000 32.000000 32.000000 32.000000 32.000000 32.000000 32.000000 32.000000 32.000000 32.000000 32.000000 32.000000 32.000000 32.000000 32.000000 32.000000 32.000000 32.000000 32.000000 32.000000 32.000000 32.000000 32.000000 32.000000 32.000000 32.000000 32.000000 32.000000 32.000000 32.000000 32.000000 32.000000 32.000000 32.000000 32.000000 32.000000 32.000000 32.000000 32.000000 32.000000 32.000000 32.000000 32.000000 32.000000 32.000000 32.000000 32.000000 32.000000 32.000000 32.000000 32.000000 32.000000 32.000000 32.000000 32.000000 32.000000 32.000000 32.000000 32.000000 32.000000 32.000000 32.000000 32.000000 32.000000 32.000000 32.000000 32.000000 32.000000 32.000000 32.000000 32.000000 32.000000 32.000000 32.000000 32.000000 32.000000 32.000000 32.000001 32.000001 32.000003 32.000007 32.000014 32.000027 32.000053 32.000100 32.000184 32.000331 32.000581 32.000995 32.001663 32.002713 32.004321 32.006720 32.010209 32.015157 32.021996 32.031214 32.043330 32.058858 32.078268 32.101932 32.130074 32.162718 32.199658 32.240435 32.284349 32.330487 32.377778
32.755556 32.660973 32.568698 32.480870 32.399315 32.325436 32.260148 32.203865 32.156536 32.117715 32.086659 32.062428 32.043992 32.030313 32.020418 32.013439 32.008642 32.005426 32.003327 32.001991 32.001162 32.000662 32.000368 32.000199 32.000105 32.000054 32.000027 32.000013 32.000006 32.000003 32.000001 32.000001 32.000000 32.000000 32.000000 32.000000 32.000000 32.000000 32.000000 32.000000 32.000000 32.000000 32.000000 32.000000 32.000000 32.000000 32.000000 32.000000 32.000000 32.000000 32.000000 32.000000 32.000000 32.000000 32.000000 32.000000 32.000000 32.000000 32.000000 32.000000 32.000000 32.000000 32.000000 32.000000 32.000000 32.000000 32.000000 32.000000 32.000000 32.000000 32.000000 32.000000 32.000000 32.000000 32.000000 32.000000 32.000000 32.000000 32.000000 32.000000 32.000000 32.000000 32.000000 32.000000 32.000000 32.000000 32.000000 32.000000 32.000000 32.000000 32.000000 32.000000 32.000000 32.000000 32.000000 32.000000 32.000000 32.000000 32.000000 32.000000 32.000000 32.000000 32.000000 32.000000 32.000000 32.000000 32.000000 32.000000 32.000000 32.000000 32.000000 32.000000 32.000000 32.000000 32.000000 32.000000 32.000000 32.000000 32.000000 32.000000 32.000000 32.000000 32.000000 32.000000 32.000000 32.000000 32.000000 32.000000 32.000000 32.000000 32.000000 32.000000 32.000000 32.000000 32.000000 32.000000 32.000000 32.000000 32.000000 32.000000 32.000000 32.000000 32.000000 32.000000 32.000000 32.000000 32.000000 32.000000 32.000000 32.000001 32.000001 32.000003 32.000006 32.000013 32.000027 32.000054 32.000105 32.000199 32.000368 32.000662 32.001162 32.001991 32.003327 32.005426 32.008642 32.013439 32.020418 32.030313 32.043992 32.062428 32.086659 32.117715 32.156536 32.203865 32.260148 32.325436 32.399315 32.480870 32.568698 32.660973 32.755556
33.133333 32.991460 32.853047 32.721305 32.598973 32.488155 32.390222 32.305797 32.234804 32.176573 32.129989 32.093643 32.065988 32.045470 32.030627 32.020159 32.012962 32.008140 32.004990 32.002986 32.001743 32.000993 32.000551 32.000299 32.000158 32.000081 32.000041 32.000020 32.000009 32.000004 32.000002 32.000001 32.000000 32.000000 32.000000 32.000000 32.000000 32.000000 32.000000 32.000000 32.000000 32.000000 32.000000 32.000000 32.000000 32.000000 32.000000 32.000000 32.000000 32.000000 32.000000 32.000000 32.000000 32.000000 32.000000 32.000000 32.000000 32.000000 32.000000 32.000000 32.000000 32.000000 32.000000 32.000000 32.000000 32.000000 32.000000 32.000000 32.000000 32.000000 32.000000 32.000000 32.000000 32.000000 32.000000 32.000000 32.000000 32.000000 32.000000 32.000000 32.000000 32.000000 32.000000 32.000000 32.000000 32.000000 32.000000 32.000000 32.000000 32.000000 32.000000 32.000000 32.000000 32.000000 32.000000 32.000000 32.000000 32.000000 32.000000 32.000000 32.000000 32.000000 32.000000 32.000000 32.000000 32.000000 32.000000 32.000000 32.000000 32.000000 32.000000 32.000000 32.000000 32.000000 32.000000 32.000000 32.000000 32.000000 32.000000 32.000000 32.000000 32.000000 32.000000 32.000000 32.000000 32.000000 32.000000 32.000000 32.000000 32.000000 32.000000 32.000000 32.000000 32.000000 32.000000 32.000000 32.000000 32.000000 32.000000 32.000000 32.000000 32.000000 32.000000 32.000000 32.000000 32.000000 32.000000 32.000000 32.000000 32.000001 32.000002 32.000004 32.000009 32.000020 32.000041 32.000081 32.000158 32.000299 32.000551 32.000993 32.001743 32.002986 32.004990 32.008140 32.012962 32.020159 32.030627 32.045470 32.065988 32.093643 32.129989 32.176573 32.234804 32.305797 32.390222 32.488155 32.598973 32.721305 32.853047 32.991460 33.133333
33.511111 33.321947 33.137397 32.961740 32.798631 32.650873 32.520296 32.407730 32.313072 32.235431 32.173318 32.124857 32.087984 32.060627 32.040836 32.026879 32.017283 32.010853 32.006654 32.003981 32.002325 32.001324 32.000735 32.000398 32.000210 32.000108 32.000054 32.000026 32.000013 32.000006 32.000003 32.000001 32.000000 32.000000 32.000000 32.000000 32.000000 32.000000 32.000000 32.000000 32.000000 32.000000 32.000000 32.000000 32.000000 32.000000 32.000000 32.000000 32.000000 32.000000 32.000000 32.000000 32.000000 32.000000 32.000000 32.000000 32.000000 32.000000 32.000000 32.000000 32.000000 32.000000 32.000000 32.000000 32.000000 32.000000 32.000000 32.000000 32.000000 32.000000 32.000000 32.000000 32.000000 32.000000 32.000000 32.000000 32.000000 32.000000 32.000000 32.000000 32.000000 32.000000 32.000000 32.000000 32.000000 32.000000 32.000000 32.000000 32.000000 32.000000 32.000000 32.000000 32.000000 32.000000 32.000000 32.000000 32.000000 32.000000 32.000000 32.000000 32.000000 32.000000 32.000000 32.000000 32.000000 32.000000 32.000000 32.000000 32.000000 32.000000 32.000000 32.000000 32.000000 32.000000 32.000000 32.000000 32.000000 32.000000 32.000000 32.000000 32.000000 32.000000 32.000000 32.000000 32.000000 32.000000 32.000000 32.000000 32.000000 32.000000 32.000000 32.000000 32.000000 32.000000 32.000000 32.000000 32.000000 32.000000 32.000000 32.000000 32.000000 32.000000 32.000000 32.000000 32.000000 32.000000 32.000000 32.000000 32.000000 32.000001 32.000003 32.000006 32.000013 32.000026 32.000054 32.000108 32.000210 32.000398 32.000735 32.001324 32.002325 32.003981 32.006654 32.010853 32.017283 32.026879 32.040836 32.060627 32.087984 32.124857 32.173318 32.235431 32.313072 32.407730 32.520296 32.650873 32.798631 32.961740 33.137397 33.321947 33.511111
33.888889 33.652434 33.421746 33.202175 32.998289 32.813591 32.650370 32.509662 32.391340 32.294289 32.216648 32.156071 32.109980 32.075783 32.051045 32.033598 32.021604 32.013566 32.008317 32.004977 32.002906 32.001655 32.000919 32.000498 32.000263 32.000135 32.000068 32.000033 32.000016 32.000007 32.000003 32.000001 32.000001 32.000000 32.000000 32.000000 32.000000 32.000000 32.000000 32.000000 32.000000 32.000000 32.000000 32.000000 32.000000 32.000000 32.000000 32.000000 32.000000 32.000000 32.000000 32.000000 32.000000 32.000000 32.000000 32.000000 32.000000 32.000000 32.000000 32.000000 32.000000 32.000000 32.000000 32.000000 32.000000 32.000000 32.000000 32.000000 32.000000 32.000000 32.000000 32.000000 32.000000 32.000000 32.000000 32.000000 32.000000 32.000000 32.000000 32.000000 32.000000 32.000000 32.000000 32.000000 32.000000 32.000000 32.000000 32.000000 32.000000 32.000000 32.000000 32.000000 32.000000 32.000000 32.000000 32.000000 32.000000 32.000000 32.000000 32.000000 32.000000 32.000000 32.000000 32.000000 32.000000 32.000000 32.000000 32.000000 32.000000 32.000000 32.000000 32.000000 32.000000 32.000000 32.000000 32.000000 32.000000 32.000000 32.000000 32.000000 32.000000 32.000000 32.000000 32.000000 32.000000 32.000000 32.000000 32.000000 32.000000 32.000000 32.000000 32.000000 32.000000 32.000000 32.000000 32.000000 32.000000 32.000000 32.000000 32.000000 32.000000 32.000000 32.000000 32.000000 32.000000 32.000000 32.000000 32.000000 32.000001 32.000001 32.000003 32.000007 32.000016 32.000033 32.000068 32.000135 32.000263 32.000498 32.000919 32.001655 32.002906 32.004977 32.008317 32.013566 32.021604 32.033598 32.051045 32.075783 32.109980 32.156071 32.216648 32.294289 32.391340 32.509662 32.650370 32.813591 32.998289 33.202175 33.421746 33.652434 33.888889
34.266667 33.982920 33.706095 33.442610 33.197946 32.976309 32.780444 32.611595 32.469608 32.353146 32.259977 32.187285 32.131976 32.090940 32.061254 32.040318 32.025925 32.016279 32.009980 32.005972 32.003487 32.001986 32.001103 32.000597 32.000315 32.000162 32.000081 32.000040 32.000019 32.000009 32.000004 32.000002 32.000001 32.000000 32.000000 32.000000 32.000000 32.000000 32.000000 32.000000 32.000000 32.000000 32.000000 32.000000 32.000000 32.000000 32.000000 32.000000 32.000000 32.000000 32.000000 32.000000 32.000000 32.000000 32.000000 32.000000 32.000000 32.000000 32.000000 32.000000 32.000000 32.000000 32.000000 32.000000 32.000000 32.000000 32.000000 32.000000 32.000000 32.000000 32.000000 32.000000 32.000000 32.000000 32.000000 32.000000 32.000000 32.000000 32.000000 32.000000 32.000000 32.000000 32.000000 32.000000 32.000000 32.000000 32.000000 32.000000 32.000000 32.000000 32.000000 32.000000 32.000000 32.000000 32.000000 32.000000 32.000000 32.000000 32.000000 32.000000 32.000000 32.000000 32.000000 32.000000 32.000000 32.000000 32.000000 32.000000 32.000000 32.000000 32.000000 32.000000 32.000000 32.000000 32.000000 32.000000 32.000000 32.000000 32.000000 32.000000 32.000000 32.000000 32.000000 32.000000 32.000000 32.000000 32.000000 32.000000 32.000000 32.000000 32.000000 32.000000 32.000000 32.000000 32.000000 32.000000 32.000000 32.000000 32.000000 32.000000 32.000000 32.000000 32.000000 32.000000 32.000000 32.000000 32.000000 32.000000 32.000001 32.000002 32.000004 32.000009 32.000019 32.000040 32.000081 32.000162 32.000315 32.000597 32.001103 32.001986 32.003487 32.005972 32.009980 32.016279 32.025925 32.040318 32.061254 32.090940 32.131976 32.187285 32.259977 32.353146 32.469608 32.611595 32.780444 32.976309 33.197946 33.442610 33.706095 33.982920 34.266667
34.644444 34.313407 33.990444 33.683046 33.397604 33.139027 32.910518 32.713527 32.547876 32.412004 32.303307 32.218499 32.153972 32.106097 32.071463 32.047038 32.030245 32.018993 32.011644 32.006967 32.004068 32.002317 32.001287 32.000697 32.000368 32.000189 32.000095 32.000046 32.000022 32.000010 32.000005 32.000002 32.000001 32.000000 32.000000 32.000000 32.000000 32.000000 32.000000 32.000000 32.000000 32.000000 32.000000 32.000000 32.000000 32.000000 32.000000 32.000000 32.000000 32.000000 32.000000 32.000000 32.000000 32.000000 32.000000 32.000000 32.000000 32.000000 32.000000 32.000000 32.000000 32.000000 32.000000 32.000000 32.000000 32.000000 32.000000 32.000000 32.000000 32.000000 32.000000 32.000000 32.000000 32.000000 32.000000 32.000000 32.000000 32.000000 32.000000 32.000000 32.000000 32.000000 32.000000 32.000000 32.000000 32.000000 32.000000 32.000000 32.000000 32.000000 32.000000 32.000000 32.000000 32.000000 32.000000 32.000000 32.000000 32.000000 32.000000 32.000000 32.000000 32.000000 32.000000 32.000000 32.000000 32.000000 32.000000 32.000000 32.000000 32.000000 32.000000 32.000000 32.000000 32.000000 32.000000 32.000000 32.000000 32.000000 32.000000 32.000000 32.000000 32.000000 32.000000 32.000000 32.000000 32.000000 32.000000 32.000000 32.000000 32.000000 32.000000 32.000000 32.000000 32.000000 32.000000 32.000000 32.000000 32.000000 32.000000 32.000000 32.000000 32.000000 32.000000 32.000000 32.000000 32.000000 32.000000 32.000000 32.000001 32.000002 32.000005 32.000010 32.000022 32.000046 32.000095 32.000189 32.000368 32.000697 32.001287 32.002317 32.004068 32.006967 32.011644 32.018993 32.030245 32.047038 32.071463 32.106097 32.153972 32.218499 32.303307 32.412004 32.547876 32.713527 32.910518 33.139027 33.397604 33.683046 33.990444 34.313407 34.644444
35.022222 34.643894 34.274793 33.923481 33.597262 33.301746 33.040592 32.815459 32.626144 32.470862 32.346637 32.249714 32.175968 32.121253 32.081672 32.053758 32.034566 32.021706 32.013307 32.007963 32.004649 32.002648 32.001471 32.000796 32.000420 32.000216 32.000108 32.000053 32.000025 32.000012 32.000005 32.000002 32.000001 32.000000 32.000000 32.000000 32.000000 32.000000 32.000000 32.000000 32.000000 32.000000 32.000000 32.000000 32.000000 32.000000 32.000000 32.000000 32.000000 32.000000 32.000000 32.000000 32.000000 32.000000 32.000000 32.000000 32.000000 32.000000 32.000000 32.000000 32.000000 32.000000 32.000000 32.000000 32.000000 32.000000 32.000000 32.000000 32.000000 32.000000 32.000000 32.000000 32.000000 32.000000 32.000000 32.000000 32.000000 32.000000 32.000000 32.000000 32.000000 32.000000 32.000000 32.000000 32.000000 32.000000 32.000000 32.000000 32.000000 32.000000 32.000000 32.000000 32.000000 32.000000 32.000000 32.000000 32.000000 32.000000 32.000000 32.000000 32.000000 32.000000 32.000000 32.000000 32.000000 32.000000 32.000000 32.000000 32.000000 32.000000 32.000000 32.000000 32.000000 32.000000 32.000000 32.000000 32.000000 32.000000 32.000000 32.000000 32.000000 32.000000 32.000000 32.000000 32.000000 32.000000 32.000000 32.000000 32.000000 32.000000 32.000000 32.000000 32.000000 32.000000 32.000000 32.000000 32.000000 32.000000 32.000000 32.000000 32.000000 32.000000 32.000000 32.000000 32.000000 32.000000 32.000000 32.000000 32.000001 32.000002 32.000005 32.000012 32.000025 32.000053 32.000108 32.000216 32.000420 32.000796 32.001471 32.002648 32.004649 32.007963 32.013307 32.021706 32.034566 32.053758 32.081672 32.121253 32.175968 32.249714 32.346637 32.470862 32.626144 32.815459 33.040592 33.301746 33.597262 33.923481 34.274793 34.643894 35.022222
35.400000 34.974381 34.559142 34.163916 33.796919 33.464464 33.170666 32.917392 32.704411 32.529720 32.389966 32.280928 32.197964 32.136410 32.091881 32.060477 32.038887 32.024419 32.014971 32.008958 32.005230 32.002979 32.001654 32.000896 32.000473 32.000243 32.000122 32.000059 32.000028 32.000013 32.000006 32.000003 32.000001 32.000000 32.000000 32.000000 32.000000 32.000000 32.000000 32.000000 32.000000 32.000000 32.000000 32.000000 32.000000 32.000000 32.000000 32.000000 32.000000 32.000000 32.000000 32.000000 32.000000 32.000000 32.000000 32.000000 32.000000 32.000000 32.000000 32.000000 32.000000 32.000000 32.000000 32.000000 32.000000 32.000000 32.000000 32.000000 32.000000 32.000000 32.000000 32.000000 32.000000 32.000000 32.000000 32.000000 32.000000 32.000000 32.000000 32.000000 32.000000 32.000000 32.000000 32.000000 32.000000 32.000000 32.000000 32.000000 32.000000 32.000000 32.000000 32.000000 32.000000 32.000000 32.000000 32.000000 32.000000 32.000000 32.000000 32.000000 32.000000 32.000000 32.000000 32.000000 32.000000 32.000000 32.000000 32.000000 32.000000 32.000000 32.000000 32.000000 32.000000 32.000000 32.000000 32.000000 32.000000 32.000000 32.000000 32.000000 32.000000 32.000000 32.000000 32.000000 32.000000 32.000000 32.000000 32.000000 32.000000 32.000000 32.000000 32.000000 32.000000 32.000000 32.000000 32.000000 32.000000 32.000000 32.000000 32.000000 32.000000 32.000000 32.000000 32.000000 32.000000 32.000000 32.000000 32.000000 32.000001 32.000003 32.000006 32.000013 32.000028 32.000059 32.000122 32.000243 32.000473 32.000896 32.001654 32.002979 32.005230 32.008958 32.014971 32.024419 32.038887 32.060477 32.091881 32.136410 32.197964 32.280928 32.389966 32.529720 32.704411 32.917392 33.170666 33.464464 33.796919 34.163916 34.559142 34.974381 35.400000
35.777778 35.304867 34.843492 34.404351 33.996577 33.627182 33.300740 33.019324 32.782679 32.588577 32.433296 32.312142 32.219960 32.151566 32.102091 32.067197 32.043208 32.027132 32.016634 32.009953 32.005811 32.003310 32.001838 32.000995 32.000525 32.000270 32.000135 32.000066 32.000031 32.000014 32.000006 32.000003 32.000001 32.000000 32.000000 32.000000 32.000000 32.000000 32.000000 32.000000 32.000000 32.000000 32.000000 32.000000 32.000000 32.000000 32.000000 32.000000 32.000000 32.000000 32.000000 32.000000 32.000000 32.000000 32.000000 32.000000 32.000000 32.000000 32.000000 32.000000 32.000000 32.000000 32.000000 32.000000 32.000000 32.000000 32.000000 32.000000 32.000000 32.000000 32.000000 32.000000 32.000000 32.000000 32.000000 32.000000 32.000000 32.000000 32.000000 32.000000 32.000000 32.000000 32.000000 32.000000 32.000000 32.000000 32.000000 32.000000 32.000000 32.000000 32.000000 32.000000 32.000000 32.000000 32.000000 32.000000 32.000000 32.000000 32.000000 32.000000 32.000000 32.000000 32.000000 32.000000 32.000000 32.000000 32.000000 32.000000 32.000000 32.000000 32.000000 32.000000 32.000000 32.000000 32.000000 32.000000 32.000000 32.000000 32.000000 32.000000 32.000000 32.000000 32.000000 32.000000 32.000000 32.000000 32.000000 32.000000 32.000000 32.000000 32.000000 32.000000 32.000000 32.000000 32.000000 32.000000 32.000000 32.000000 32.000000 32.000000 32.000000 32.000000 32.000000 32.000000 32.000000 32.000000 32.000000 32.000000 32.000001 32.000003 32.000006 32.000014 32.000031 32.000066 32.000135 32.000270 32.000525 32.000995 32.001838 32.003310 32.005811 32.009953 32.016634 32.027132 32.043208 32.067197 32.102091 32.151566 32.219960 32.312142 32.433296 32.588577 32.782679 33.019324 33.300740 33.627182 33.996577 34.404351 34.843492 35.304867 35.777778
36.155556 35.635354 35.127841 34.644786 34.196235 33.789900 33.430814 33.121257 32.860947 32.647435 32.476625 32.343356 32.241956 32.166723 32.112300 32.073917 32.047528 32.029845 32.018297 32.010949 32.006393 32.003641 32.002022 32.001095 32.000578 32.000297 32.000149 32.000073 32.000034 32.000016 32.000007 32.000003 32.000001 32.000001 32.000000 32.000000 32.000000 32.000000 32.000000 32.000000 32.000000 32.000000 32.000000 32.000000 32.000000 32.000000 32.000000 32.000000 32.000000 32.000000 32.000000 32.000000 32.000000 32.000000 32.000000 32.000000 32.000000 32.000000 32.000000 32.000000 32.000000 32.000000 32.000000 32.000000 32.000000 32.000000 32.000000 32.000000 32.000000 32.000000 32.000000 32.000000 32.000000 32.000000 32.000000 32.000000 32.000000 32.000000 32.000000 32.000000 32.000000 32.000000 32.000000 32.000000 32.000000 32.000000 32.000000 32.000000 32.000000 32.000000 32.000000 32.000000 32.000000 32.000000 32.000000 32.000000 32.000000 32.000000 32.000000 32.000000 32.000000 32.000000 32.000000 32.000000 32.000000 32.000000 32.000000 32.000000 32.000000 32.000000 32.000000 32.000000 32.000000 32.000000 32.000000 32.000000 32.000000 32.000000 32.000000 32.000000 32.000000 32.000000 32.000000 32.000000 32.000000 32.000000 32.000000 32.000000 32.000000 32.000000 32.000000 32.000000 32.000000 32.000000 32.000000 32.000000 32.000000 32.000000 32.000000 32.000000 32.000000 32.000000 32.000000 32.000000 32.000000 32.000000 32.000000 32.000001 32.000001 32.000003 32.000007 32.000016 32.000034 32.000073 32.000149 32.000297 32.000578 32.001095 32.002022 32.003641 32.006393 32.010949 32.018297 32.029845 32.047528 32.073917 32.112300 32.166723 32.241956 32.343356 32.476625 32.647435 32.860947 33.121257 33.430814 33.789900 34.196235 34.644786 35.127841 35.635354 36.155556
36.533333 35.965841 35.412190 34.885221 34.395892 33.952618 33.560888 33.223189 32.939215 32.706293 32.519955 32.374570 32.263952 32.181880 32.122509 32.080636 32.051849 32.032559 32.019961 32.011944 32.006974 32.003972 32.002206 32.001194 32.000630 32.000324 32.000162 32.000079 32.000038 32.000017 32.000008 32.000003 32.000001 32.000001 32.000000 32.000000 32.000000 32.000000 32.000000 32.000000 32.000000 32.000000 32.000000 32.000000 32.000000 32.000000 32.000000 32.000000 32.000000 32.000000 32.000000 32.000000 32.000000 32.000000 32.000000 32.000000 32.000000 32.000000 32.000000 32.000000 32.000000 32.000000 32.000000 32.000000 32.000000 32.000000 32.000000 32.000000 32.000000 32.000000 32.000000 32.000000 32.000000 32.000000 32.000000 32.000000 32.000000 32.000000 32.000000 32.000000 32.000000 32.000000 32.000000 32.000000 32.000000 32.000000 32.000000 32.000000 32.000000 32.000000 32.000000 32.000000 32.000000 32.000000 32.000000 32.000000 32.000000 32.000000 32.000000 32.000000 32.000000 32.000000 32.000000 32.000000 32.000000 32.000000 32.000000 32.000000 32.000000 32.000000 32.000000 32.000000 32.000000 32.000000 32.000000 32.000000 32.000000 32.000000 32.000000 32.000000 32.000000 32.000000 32.000000 32.000000 32.000000 32.000000 32.000000 32.000000 32.000000 32.000000 32.000000 32.000000 32.000000 32.000000 32.000000 32.000000 32.000000 32.000000 32.000000 32.000000 32.000000 32.000000 32.000000 32.000000 32.000000 32.000000 32.000000 32.000001 32.000001 32.000003 32.000008 32.000017 32.000038 32.000079 32.000162 32.000324 32.000630 32.001194 32.002206 32.003972 32.006974 32.011944 32.019961 32.032559 32.051849 32.080636 32.122509 32.181880 32.263952 32.374570 32.519955 32.706293 32.939215 33.223189 33.560888 33.952618 34.395892 34.885221 35.412190 35.965841 36.533333
36.911111 36.296328 35.696539 35.125656 34.595550 34.115337 33.690962 33.325122 33.017483 32.765151 32.563285 32.405785 32.285948 32.197036 32.132718 32.087356 32.056170 32.035272 32.021624 32.012939 32.007555 32.004303 32.002390 32.001294 32.000683 32.000351 32.000176 32.000086 32.000041 32.000019 32.000008 32.000004 32.000002 32.000001 32.000000 32.000000 32.000000 32.000000 32.000000 32.000000 32.000000 32.000000 32.000000 32.000000 32.000000 32.000000 32.000000 32.000000 32.000000 32.000000 32.000000 32.000000 32.000000 32.000000 32.000000 32.000000 32.000000 32.000000 32.000000 32.000000 32.000000 32.000000 32.000000 32.000000 32.000000 32.000000 32.000000 32.000000 32.000000 32.000000 32.000000 32.000000 32.000000 32.000000 32.000000 32.000000 32.000000 32.000000 32.000000 32.000000 32.000000 32.000000 32.000000 32.000000 32.000000 32.000000 32.000000 32.000000 32.000000 32.000000 32.000000 32.000000 32.000000 32.000000 32.000000 32.000000 32.000000 32.000000 32.000000 32.000000 32.000000 32.000000 32.000000 32.000000 32.000000 32.000000 32.000000 32.000000 32.000000 32.000000 32.000000 32.000000 32.000000 32.000000 32.000000 32.000000 32.000000 32.000000 32.000000 32.000000 32.000000 32.000000 32.000000 32.000000 32.000000 32.000000 32.000000 32.000000 32.000000 32.000000 32.000000 32.000000 32.000000 32.000000 32.000000 32.000000 32.000000 32.000000 32.000000 32.000000 32.000000 32.000000 32.000000 32.000000 32.000000 32.000000 32.000000 32.000001 32.000002 32.000004 32.000008 32.000019 32.000041 32.000086 32.000176 32.000351 32.000683 32.001294 32.002390 32.004303 32.007555 32.012939 32.021624 32.035272 32.056170 32.087356 32.132718 32.197036 32.285948 32.405785 32.563285 32.765151 33.017483 33.325122 33.690962 34.115337 34.595550 35.125656 35.696539 36.296328 36.911111
37.288889 36.626814 35.980888 35.366091 34.795208 34.278055 33.821036 33.427054 33.095751 32.824008 32.606614 32.436999 32.307944 32.212193 32.142927 32.094076 32.060491 32.037985 32.023288 32.013935 32.008136 32.004634 32.002574 32.001394 32.000735 32.000378 32.000189 32.000092 32.000044 32.000020 32.000009 32.000004 32.000002 32.000001 32.000000 32.000000 32.000000 32.000000 32.000000 32.000000 32.000000 32.000000 32.000000 32.000000 32.000000 32.000000 32.000000 32.000000 32.000000 32.000000 32.000000 32.000000 32.000000 32.000000 32.000000 32.000000 32.000000 32.000000 32.000000 32.000000 32.000000 32.000000 32.000000 32.000000 32.000000 32.000000 32.000000 32.000000 32.000000 32.000000 32.000000 32.000000 32.000000 32.000000 32.000000 32.000000 32.000000 32.000000 32.000000 32.000000 32.000000 32.000000 32.000000 32.000000 32.000000 32.000000 32.000000 32.000000 32.000000 32.000000 32.000000 32.000000 32.000000 32.000000 32.000000 32.000000 32.000000 32.000000 32.000000 32.000000 32.000000 32.000000 32.000000 32.000000 32.000000 32.000000 32.000000 32.000000 32.000000 32.000000 32.000000 32.000000 32.000000 32.000000 32.000000 32.000000 32.000000 32.000000 32.000000 32.000000 32.000000 32.000000 32.000000 32.000000 32.000000 32.000000 32.000000 32.000000 32.000000 32.000000 32.000000 32.000000 32.000000 32.000000 32.000000 32.000000 32.000000 32.000000 32.000000 32.000000 32.000000 32.000000 32.000000 32.000000 32.000000 32.000000 32.000000 32.000001 32.000002 32.000004 32.000009 32.000020 32.000044 32.000092 32.000189 32.000378 32.000735 32.001394 32.002574 32.004634 32.008136 32.013935 32.023288 32.037985 32.060491 32.094076 32.142927 32.212193 32.307944 32.436999 32.606614 32.824008 33.095751 33.427054 33.821036 34.278055 34.795208 35.366091 35.980888 36.626814 37.288889
37.666667 36.957301 36.265237 35.606526 34.994866 34.440773 33.951110 33.528987 33.174019 32.882866 32.649944 32.468213 32.329940 32.227350 32.153136 32.100795 32.064811 32.040698 32.024951 32.014930 32.008717 32.004965 32.002757 32.001493 32.000788 32.000405 32.000203 32.000099 32.000047 32.000022 32.000010 32.000004 32.000002 32.000001 32.000000 32.000000 32.000000 32.000000 32.000000 32.000000 32.000000 32.000000 32.000000 32.000000 32.000000 32.000000 32.000000 32.000000 32.000000 32.000000 32.000000 32.000000 32.000000 32.000000 32.000000 32.000000 32.000000 32.000000 32.000000 32.000000 32.000000 32.000000 32.000000 32.000000 32.000000 32.000000 32.000000 32.000000 32.000000 32.000000 32.000000 32.000000 32.000000 32.000000 32.000000 32.000000 32.000000 32.000000 32.000000 32.000000 32.000000 32.000000 32.000000 32.000000 32.000000 32.000000 32.000000 32.000000 32.000000 32.000000 32.000000 32.000000 32.000000 32.000000 32.000000 32.000000 32.000000 32.000000 32.000000 32.000000 32.000000 32.000000 32.000000 32.000000 32.000000 32.000000 32.000000 32.000000 32.000000 32.000000 32.000000 32.000000 32.000000 32.000000 32.000000 32.000000 32.000000 32.000000 32.000000 32.000000 32.000000 32.000000 32.000000 32.000000 32.000000 32.000000 32.000000 32.000000 32.000000 32.000000 32.000000 32.000000 32.000000 32.000000 32.000000 32.000000 32.000000 32.000000 32.000000 32.000000 32.000000 32.000000 32.000000 32.000000 32.000000 32.000000 32.000000 32.000001 32.000002 32.000004 32.000010 32.000022 32.000047 32.000099 32.000203 32.000405 32.000788 32.001493 32.002757 32.004965 32.008717 32.014930 32.024951 32.040698 32.064811 32.100795 32.153136 32.227350 32.329940 32.468213 32.649944 32.882866 33.174019 33.528987 33.951110 34.440773 34.994866 35.606526 36.265237 36.957301 37.666667