<?xml version="1.0"?>
<VTKFile type="ImageData" version="0.1" byte_order="LittleEndian">
  <ImageData WholeExtent="0 180 0 180 0 0" Origin="0.0 0.0 0.0" Spacing="0.05 0.05 1">
    <Piece Extent="0 180 0 180 0 0">
      <PointData Scalars="Temperature">
        <DataArray type="Float32" Name="Temperature" format="ascii">
32.000000 32.000000 32.000000 32.000000 32.000000 32.000000 32.000000 32.000000 32.000000 32.000000 32.000000 32.000000 32.000000 32.000000 32.000000 32.000000 32.000000 32.000000 32.000000 32.000000 32.000000 32.000000 32.000000 32.000000 32.000000 32.000000 32.000000 32.000000 32.000000 32.000000 32.000000 32.000000 32.000000 32.000000 32.000000 32.000000 32.000000 32.000000 32.000000 32.000000 32.000000 32.000000 32.000000 32.000000 32.000000 32.000000 32.000000 32.000000 32.000000 32.000000 32.000000 32.000000 32.000000 32.000000 32.000000 32.000000 32.000000 32.000000 32.000000 32.000000 32.000000 32.000000 32.000000 32.000000 32.000000 32.000000 32.000000 32.000000 32.000000 32.000000 32.000000 32.000000 32.000000 32.000000 32.000000 32.000000 32.000000 32.000000 32.000000 32.000000 32.000000 32.000000 32.000000 32.000000 32.000000 32.000000 32.000000 32.000000 32.000000 32.000000 32.000000 32.000000 32.000000 32.000000 32.000000 32.000000 32.000000 32.000000 32.000000 32.000000 32.000000 32.000000 32.000000 32.000000 32.000000 32.000000 32.000000 32.000000 32.000000 32.000000 32.000000 32.000000 32.000000 32.000000 32.000000 32.000000 32.000000 32.000000 32.000000 32.000000 32.000000 32.000000 32.000000 32.000000 32.000000 32.000000 32.000000 32.000000 32.000000 32.000000 32.000000 32.000000 32.000000 32.000000 32.000000 32.000000 32.000000 32.000000 32.000000 32.000000 32.000000 32.000000 32.000000 32.000000 32.000000 32.000000 32.000000 32.000000 32.000000 32.000000 32.000000 32.000000 32.000000 32.000000 32.000000 32.000000 32.000000 32.000000 32.000000 32.000000 32.000000 32.000000 32.000000 32.000000 32.000000 32.000000 32.000000 32.000000 32.000000 32.000000 32.000000 32.000000 32.000000 32.000000 32.000000 32.000000 32.000000 32.000000 32.000000 32.000000 32.000000
32.377778 32.380479 32.383211 32.386008 32.388896 32.391915 32.395084 32.398447 32.402017 32.405843 32.409930 32.414332 32.419045 32.424128 32.429569 32.435429 32.441691 32.448415 32.455578 32.463242 32.471376 32.480043 32.489203 32.498921 32.509150 32.519955 32.531278 32.543187 32.555616 32.568631 32.582160 32.596267 32.610872 32.626039 32.641681 32.657859 32.674479 32.691604 32.709130 32.727118 32.745461 32.764217 32.783273 32.802685 32.822337 32.842284 32.862404 32.882751 32.903202 32.923807 32.944444 32.965161 32.985834 33.006510 33.027068 33.047552 33.067842 33.087982 33.107855 33.127504 33.146815 33.165831 33.184443 33.202692 33.220474 33.237830 33.254663 33.271012 33.286786 33.302024 33.316641 33.330675 33.344049 33.356798 33.368853 33.380248 33.390921 33.400902 33.410139 33.418658 33.426415 33.433432 33.439673 33.445158 33.449857 33.453785 33.456923 33.459279 33.460842 33.461617 33.461599 33.460788 33.459189 33.456796 33.453622 33.449655 33.444917 33.439394 33.433112 33.426053 33.418253 33.409689 33.400406 33.390377 33.379655 33.368209 33.356099 33.343295 33.329862 33.315768 33.301088 33.285785 33.269943 33.253524 33.236618 33.219186 33.201326 33.182995 33.164300 33.145197 33.125797 33.106056 33.086088 33.065851 33.045462 33.024877 33.004216 32.983434 32.962654 32.941829 32.921082 32.900366 32.879804 32.859345 32.839113 32.819055 32.799292 32.779770 32.760606 32.741744 32.723298 32.705209 32.687587 32.670370 32.653662 32.637402 32.621685 32.606449 32.591783 32.577623 32.564052 32.551003 32.538552 32.526632 32.515310 32.504520 32.494322 32.484648 32.475549 32.466959 32.458922 32.451373 32.444345 32.437776 32.431692 32.426032 32.420814 32.415979 32.411539 32.407436 32.403676 32.400202 32.397015 32.394061 32.391333 32.388783 32.386396 32.384129 32.381961 32.379853 32.377778
32.755556 32.760980 32.766471 32.772083 32.777893 32.783943 32.790320 32.797054 32.804240 32.811895 32.820121 32.828923 32.838409 32.848569 32.859518 32.871230 32.883826 32.897264 32.911669 32.926984 32.943338 32.960656 32.979070 32.998490 33.019047 33.040637 33.063392 33.087189 33.112161 33.138170 33.165348 33.193540 33.222877 33.253189 33.284604 33.316938 33.350316 33.384542 33.419736 33.455690 33.492521 33.530010 33.568270 33.607073 33.646528 33.686399 33.726791 33.767463 33.808516 33.849706 33.891130 33.932542 33.974037 34.015369 34.056630 34.097576 34.138298 34.178556 34.218439 34.257714 34.296468 34.334477 34.371825 34.408299 34.443981 34.478669 34.512445 34.545118 34.576768 34.607219 34.636546 34.664590 34.691422 34.716897 34.741083 34.763851 34.785262 34.805205 34.823735 34.840755 34.856315 34.870335 34.882855 34.893812 34.903238 34.911086 34.917380 34.922087 34.925223 34.926770 34.926734 34.925115 34.921907 34.917126 34.910759 34.902835 34.893332 34.882296 34.869695 34.855592 34.839946 34.822836 34.804214 34.784176 34.762665 34.739794 34.715501 34.689914 34.662966 34.634802 34.605349 34.574767 34.542982 34.510167 34.476246 34.441406 34.405567 34.368931 34.331415 34.293233 34.254300 34.214841 34.174769 34.134318 34.093397 34.052249 34.010781 33.969239 33.927530 33.885901 33.844257 33.802846 33.761569 33.720674 33.680058 33.639965 33.600288 33.561266 33.522790 33.485089 33.448051 33.411897 33.376509 33.342099 33.308546 33.276048 33.244482 33.214034 33.184575 33.156278 33.129014 33.102938 33.077921 33.054103 33.031352 33.009793 32.989294 32.969965 32.951673 32.934512 32.918350 32.903266 32.889130 32.876005 32.863764 32.852453 32.841951 32.832288 32.823348 32.815146 32.807571 32.800625 32.794202 32.788291 32.782794 32.777686 32.772877 32.768330 32.763964 32.759729 32.755556
33.133333 33.141532 33.149821 33.158309 33.167068 33.176223 33.185827 33.196017 33.206829 33.218411 33.230779 33.244093 33.258346 33.273708 33.290151 33.307854 33.326765 33.347069 33.368691 33.391824 33.416368 33.442518 33.470151 33.499467 33.530316 33.562899 33.597045 33.632952 33.670426 33.709664 33.750447 33.792971 33.836994 33.882710 33.929853 33.978612 34.028703 34.080309 34.133126 34.187333 34.242608 34.299124 34.356544 34.415036 34.474250 34.534347 34.594968 34.656269 34.717882 34.779958 34.842127 34.904534 34.966808 35.029090 35.091010 35.152707 35.213816 35.274472 35.334320 35.393490 35.451641 35.508899 35.564936 35.619877 35.673411 35.725659 35.776329 35.825538 35.873015 35.918873 35.962863 36.005094 36.045337 36.083697 36.119969 36.154250 36.186359 36.216384 36.244169 36.269793 36.293124 36.314229 36.333001 36.349496 36.363628 36.375442 36.384878 36.391964 36.396664 36.398994 36.398940 36.396503 36.391694 36.384498 36.374951 36.363024 36.348776 36.332163 36.313270 36.292040 36.268580 36.242822 36.214898 36.184730 36.152472 36.118037 36.081604 36.043077 36.002659 35.960248 35.916070 35.870015 35.822335 35.772914 35.722026 35.669550 35.615781 35.560596 35.504307 35.446789 35.388371 35.328925 35.268794 35.207848 35.146441 35.084441 35.022210 34.959612 34.897018 34.834285 34.771787 34.709378 34.647431 34.585795 34.524839 34.464408 34.404862 34.346041 34.288297 34.231463 34.175878 34.121370 34.068264 34.016381 33.966029 33.917025 33.869656 33.823735 33.779530 33.736848 33.695936 33.656598 33.619059 33.583120 33.548981 33.516444 33.485685 33.456505 33.429057 33.403142 33.378889 33.356102 33.334887 33.315051 33.296676 33.279574 33.263805 33.249188 33.235758 33.223344 33.211958 33.201438 33.191776 33.182820 33.174541 33.166799 33.159547 33.152656 33.146061 33.139648 33.133333
33.511111 33.522149 33.533320 33.544734 33.556545 33.568839 33.581789 33.595457 33.610033 33.625551 33.642217 33.660038 33.679235 33.699785 33.721920 33.745589 33.771032 33.798169 33.827248 33.858157 33.891151 33.926085 33.963219 34.002376 34.043820 34.087338 34.133197 34.181152 34.231469 34.283871 34.338621 34.395410 34.454500 34.515551 34.578819 34.643935 34.711150 34.780068 34.850933 34.923325 34.997480 35.072957 35.149982 35.228097 35.307521 35.387780 35.469084 35.550949 35.633577 35.716475 35.799842 35.883179 35.966679 36.049846 36.132864 36.215245 36.297168 36.378154 36.458378 36.537375 36.615316 36.691753 36.766853 36.840191 36.911929 36.981664 37.049557 37.115230 37.178837 37.240032 37.298961 37.355308 37.409213 37.460390 37.508971 37.554700 37.597701 37.637750 37.674958 37.709134 37.740375 37.768521 37.793655 37.815651 37.834573 37.850327 37.862960 37.872408 37.878702 37.881808 37.881736 37.878486 37.872048 37.862454 37.849673 37.833768 37.814692 37.792539 37.767243 37.738930 37.707517 37.673164 37.635772 37.595532 37.552332 37.506397 37.457601 37.406202 37.352064 37.295477 37.236296 37.174841 37.110962 37.045007 36.976822 36.906784 36.834732 36.761070 36.685633 36.608850 36.530552 36.451188 36.370587 36.289214 36.206894 36.124108 36.040676 35.957089 35.873161 35.789390 35.705585 35.622243 35.539170 35.456859 35.375107 35.294403 35.214536 35.135983 35.058526 34.982627 34.908059 34.835267 34.764016 34.694730 34.627167 34.561724 34.498156 34.436832 34.377499 34.320502 34.265580 34.213048 34.162643 34.114648 34.068798 34.025344 33.984021 33.945048 33.908160 33.873544 33.840937 33.810494 33.781958 33.755451 33.730721 33.707860 33.686624 33.667074 33.648974 33.632359 33.617002 33.602908 33.589866 33.577852 33.566670 33.556269 33.546468 33.537194 33.528283 33.519636 33.511111
33.888889 33.902866 33.916996 33.931458 33.946377 33.961956 33.978291 33.995606 34.013965 34.033615 34.054582 34.077134 34.101262 34.127249 34.155049 34.184960 34.216897 34.251170 34.287656 34.326672 34.368057 34.412135 34.458702 34.508089 34.560051 34.614920 34.672412 34.732858 34.795933 34.861968 34.930596 35.002146 35.076212 35.153116 35.232417 35.314429 35.398676 35.485465 35.574287 35.665439 35.758384 35.853408 35.949950 36.048287 36.147834 36.248858 36.350759 36.453795 36.557352 36.661679 36.766157 36.871025 36.975664 37.080306 37.184335 37.287977 37.390625 37.492500 37.593010 37.692371 37.790010 37.886138 37.980208 38.072426 38.162273 38.249949 38.334968 38.417525 38.497167 38.574084 38.647858 38.718672 38.786147 38.850455 38.911257 38.968713 39.022524 39.072837 39.119393 39.162323 39.201408 39.236762 39.268205 39.295831 39.319501 39.339285 39.355087 39.366953 39.374825 39.378726 39.378636 39.374556 39.366504 39.354455 39.338468 39.318495 39.294633 39.266811 39.235166 39.199604 39.160304 39.117152 39.070366 39.019814 38.965755 38.908042 38.846972 38.782386 38.714622 38.643506 38.569418 38.492176 38.412195 38.329286 38.243902 38.155846 38.065608 37.972984 37.878494 37.781933 37.683848 37.584029 37.483047 37.380688 37.277545 37.173396 37.068851 36.963683 36.858509 36.753098 36.648073 36.543192 36.439079 36.335485 36.233026 36.131445 36.031345 35.932461 35.835380 35.739827 35.646367 35.554715 35.465413 35.378164 35.293483 35.211063 35.131388 35.054143 34.979776 34.907967 34.839127 34.772929 34.709747 34.649251 34.591775 34.536987 34.485180 34.436023 34.389769 34.346088 34.305194 34.266760 34.230960 34.197475 34.166437 34.137536 34.110869 34.086133 34.063387 34.042343 34.023024 34.005156 33.988727 33.973480 33.959369 33.946157 33.933766 33.921981 33.910692 33.899707 33.888889
34.266667 34.283692 34.300919 34.318513 34.336706 34.355629 34.375544 34.396543 34.418913 34.442707 34.468236 34.495512 34.524864 34.556263 34.590056 34.626167 34.664960 34.706313 34.750602 34.797657 34.847865 34.901005 34.957472 35.016999 35.079981 35.146104 35.215764 35.288597 35.365000 35.444558 35.527667 35.613864 35.703538 35.796182 35.892176 35.990970 36.092935 36.197481 36.304967 36.414767 36.527227 36.641690 36.758489 36.876938 36.997359 37.119041 37.242297 37.366397 37.491641 37.617290 37.743633 37.869926 37.996449 38.122459 38.248228 38.373022 38.497105 38.619757 38.741238 38.860848 38.978841 39.094545 39.208207 39.319187 39.427727 39.533225 39.635916 39.735236 39.831417 39.923936 40.013015 40.098178 40.179637 40.256963 40.330354 40.399430 40.464373 40.524852 40.581032 40.632629 40.679789 40.722274 40.760209 40.793404 40.821959 40.845731 40.864793 40.879050 40.888545 40.893232 40.893125 40.888223 40.878511 40.864035 40.844752 40.820754 40.791970 40.758539 40.720362 40.677627 40.630210 40.578347 40.521891 40.461126 40.395886 40.326501 40.252789 40.175129 40.093323 40.007798 39.918343 39.825433 39.728846 39.629104 39.525974 39.420023 39.311011 39.199545 39.085380 38.969157 38.850629 38.730468 38.608422 38.485189 38.360511 38.235110 38.108721 37.982080 37.854916 37.727973 37.600972 37.474660 37.348748 37.223979 37.100054 36.977704 36.856620 36.737516 36.620070 36.504975 36.391896 36.281498 36.173435 36.068340 35.965854 35.866574 35.770131 35.677082 35.587047 35.500542 35.417179 35.337429 35.260899 35.188011 35.118370 35.052351 34.989556 34.930312 34.874222 34.821565 34.771948 34.725601 34.682136 34.641738 34.604026 34.569138 34.536706 34.506822 34.479130 34.453679 34.430131 34.408490 34.388438 34.369939 34.352697 34.336634 34.321479 34.307119 34.293307 34.279895 34.266667
34.644444 34.664666 34.685104 34.706011 34.727562 34.750047 34.773597 34.798533 34.824942 34.853173 34.883267 34.915597 34.950154 34.987336 35.027080 35.069805 35.115394 35.164281 35.216297 35.271887 35.330825 35.393567 35.459830 35.530077 35.603966 35.681963 35.763670 35.849551 35.939154 36.032938 36.130395 36.231978 36.337125 36.446282 36.558834 36.675215 36.794762 36.917899 37.043915 37.173221 37.305066 37.439845 37.576771 37.716227 37.857393 38.000639 38.145121 38.291194 38.438000 38.585877 38.733960 38.882576 39.030856 39.179118 39.326499 39.473308 39.618695 39.762962 39.905279 40.045943 40.184153 40.320198 40.453311 40.583777 40.710869 40.834865 40.955084 41.071796 41.184370 41.293067 41.397308 41.497343 41.592648 41.683459 41.769307 41.850415 41.926368 41.997369 42.063061 42.123626 42.178761 42.228624 42.272969 42.311925 42.345301 42.373197 42.395475 42.412204 42.423302 42.428802 42.428677 42.422927 42.411577 42.394593 42.372057 42.343899 42.310255 42.271024 42.226397 42.176243 42.120808 42.059933 41.993920 41.922585 41.846287 41.764819 41.678597 41.587396 41.491687 41.391230 41.286551 41.177398 41.064350 40.947145 40.826416 40.701890 40.574249 40.443216 40.309516 40.172866 40.034032 39.892726 39.749748 39.604805 39.458725 39.311207 39.163103 39.014105 38.865077 38.715703 38.566854 38.418202 38.270619 38.123766 37.978503 37.834479 37.692540 37.552320 37.414641 37.279124 37.146561 37.016558 36.889871 36.766094 36.645942 36.528994 36.415923 36.306293 36.200730 36.098788 36.001040 35.907034 35.817289 35.731344 35.649667 35.571792 35.498129 35.428214 35.362400 35.300225 35.241985 35.187224 35.136183 35.088412 35.044098 35.002805 34.964663 34.929252 34.896650 34.866453 34.838689 34.812977 34.789294 34.767281 34.746872 34.727733 34.709752 34.692626 34.676201 34.660206 34.644444
35.022222 35.045791 35.069631 35.093965 35.119106 35.145231 35.172690 35.201610 35.232375 35.265061 35.300080 35.337454 35.377624 35.420552 35.466704 35.515981 35.568870 35.625211 35.685506 35.749531 35.817803 35.890031 35.966742 36.047580 36.133075 36.222809 36.317309 36.416094 36.519689 36.627547 36.740189 36.857004 36.978504 37.104017 37.234044 37.367856 37.505940 37.647512 37.793044 37.941702 38.093943 38.248887 38.406974 38.567287 38.730248 38.894909 39.061677 39.229577 39.399002 39.568964 39.739839 39.910633 40.081710 40.252077 40.422089 40.590764 40.758445 40.924174 41.088285 41.249846 41.409187 41.565412 41.718844 41.868631 42.015090 42.157418 42.295924 42.429860 42.559527 42.684235 42.804276 42.919019 43.028743 43.132881 43.231697 43.324686 43.412093 43.493479 43.569064 43.638473 43.701901 43.759036 43.810043 43.854675 43.893061 43.925017 43.950638 43.969801 43.982564 43.988865 43.988722 43.982136 43.969086 43.949633 43.923717 43.891461 43.852769 43.807825 43.756496 43.699029 43.635259 43.565496 43.489545 43.407779 43.319977 43.226577 43.127334 43.022751 42.912564 42.797340 42.676799 42.551570 42.421362 42.286864 42.147774 42.004842 41.857756 41.707321 41.553218 41.396302 41.236248 41.073953 40.909088 40.742587 40.574113 40.404629 40.233791 40.062583 39.890652 39.718992 39.547241 39.376396 39.206082 39.037291 38.869632 38.704083 38.540240 38.379055 38.220108 38.064323 37.911261 37.761809 37.615512 37.473212 37.334437 37.199983 37.069361 36.943313 36.821338 36.704120 36.591147 36.483043 36.379286 36.280438 36.185973 36.096389 36.011155 35.930707 35.854513 35.782944 35.715475 35.652411 35.593234 35.538185 35.486760 35.439136 35.394822 35.353937 35.316009 35.281096 35.248747 35.218965 35.191325 35.165774 35.141916 35.119645 35.098598 35.078618 35.059379 35.040677 35.022222
35.400000 35.427110 35.454501 35.482502 35.511342 35.541394 35.572832 35.606072 35.641228 35.678753 35.718701 35.761556 35.807310 35.856476 35.908978 35.965354 36.025461 36.089856 36.158327 36.231445 36.308926 36.391355 36.478373 36.570572 36.667521 36.769814 36.876945 36.989510 37.106928 37.229789 37.357441 37.490465 37.628140 37.771034 37.918360 38.070670 38.227113 38.388227 38.553099 38.722250 38.894714 39.070991 39.250069 39.432428 39.617017 39.804296 39.993184 40.184120 40.376002 40.569254 40.762759 40.956926 41.150635 41.344284 41.536760 41.728448 41.918255 42.106556 42.292286 42.475811 42.656105 42.833527 43.007094 43.177162 43.342799 43.504355 43.660957 43.812947 43.959516 44.100996 44.236646 44.366785 44.490744 44.608826 44.720431 44.825844 44.924540 45.016778 45.102105 45.180753 45.252341 45.317071 45.374631 45.425187 45.468499 45.504693 45.533599 45.555303 45.569701 45.576838 45.576678 45.569221 45.554500 45.532471 45.503234 45.466704 45.423049 45.372141 45.314220 45.249118 45.177146 45.098100 45.012362 44.919696 44.820557 44.714682 44.602597 44.484016 44.359538 44.228857 44.092645 43.950580 43.803402 43.650781 43.493523 43.331286 43.164945 42.994148 42.819827 42.641627 42.460532 42.276182 42.089605 41.900434 41.709737 41.517138 41.323733 41.129139 40.934469 40.739328 40.544840 40.350594 40.157714 39.965775 39.775887 39.587609 39.402030 39.218690 39.038648 38.861425 38.688041 38.517998 38.352269 38.190336 38.033122 37.880089 37.732102 37.588607 37.450405 37.316928 37.188912 37.065776 36.948186 36.835553 36.728473 36.626350 36.529709 36.437952 36.351529 36.269848 36.193286 36.121255 36.054061 35.991126 35.932686 35.878178 35.827767 35.780909 35.737703 35.697627 35.660713 35.626468 35.594860 35.565425 35.538072 35.512373 35.488178 35.465096 35.442923 35.421309 35.400000
35.777778 35.808620 35.839804 35.871616 35.904447 35.938525 35.974290 36.011907 36.051857 36.094240 36.139577 36.187896 36.239754 36.295107 36.354541 36.417936 36.485903 36.558247 36.635597 36.717679 36.805137 36.897617 36.995773 37.099168 37.208462 37.323137 37.443853 37.570009 37.702263 37.839932 37.983664 38.132699 38.287673 38.447749 38.613547 38.784156 38.960180 39.140637 39.326112 39.515561 39.709545 39.906964 40.108357 40.312576 40.520137 40.729851 40.942213 41.156006 41.371702 41.588064 41.805548 42.022908 42.240583 42.457331 42.673577 42.888094 43.101295 43.311978 43.520550 43.725844 43.928259 44.126676 44.321486 44.511627 44.697483 44.878055 45.053721 45.223549 45.387911 45.545947 45.698018 45.843342 45.982264 46.114083 46.239125 46.356768 46.467315 46.570226 46.665776 46.753504 46.833651 46.905838 46.970268 47.026638 47.075113 47.115464 47.147813 47.172008 47.188121 47.196077 47.195900 47.187588 47.171118 47.146562 47.113848 47.073124 47.024269 46.967509 46.902678 46.830080 46.749506 46.661338 46.565331 46.461947 46.350907 46.232752 46.107178 45.974805 45.835306 45.689382 45.536687 45.378001 45.212964 45.042434 44.866040 44.684713 44.498074 44.307124 44.111476 43.912196 43.708891 43.502680 43.293167 43.081518 42.867328 42.651801 42.434524 42.216726 41.997984 41.779543 41.560966 41.343501 41.126696 40.911792 40.698318 40.487497 40.278836 40.073531 39.871067 39.672601 39.477596 39.287159 39.100734 38.919372 38.742493 38.571088 38.404556 38.243821 38.088263 37.938734 37.794600 37.656636 37.524195 37.397975 37.277320 37.162848 37.053900 36.951012 36.853525 36.761894 36.675464 36.594611 36.518687 36.447989 36.381884 36.320591 36.263493 36.210734 36.161721 36.116522 36.074572 36.035869 35.999879 35.966531 35.935327 35.906130 35.878482 35.852186 35.826826 35.802145 35.777778
36.155556 36.190368 36.225528 36.261444 36.298399 36.336856 36.377033 36.419440 36.464224 36.511942 36.562666 36.616991 36.674913 36.737062 36.803352 36.874442 36.950164 37.031201 37.117299 37.209158 37.306437 37.409851 37.518968 37.634512 37.755960 37.884038 38.018134 38.158971 38.305846 38.459476 38.619070 38.785332 38.957384 39.135914 39.319963 39.510200 39.705584 39.906763 40.112624 40.323790 40.539082 40.759098 40.982599 41.210158 41.440488 41.674136 41.909775 42.147928 42.387243 42.628218 42.869487 43.111529 43.352974 43.594285 43.834102 44.072875 44.309266 44.543714 44.774917 45.003307 45.227625 45.448299 45.664127 45.875531 46.081374 46.282073 46.476566 46.665261 46.847175 47.022708 47.190961 47.352319 47.505971 47.652286 47.790539 47.921078 48.043268 48.157426 48.263008 48.360298 48.448838 48.528875 48.600035 48.662524 48.716053 48.760779 48.796497 48.823312 48.841103 48.849921 48.849727 48.840519 48.822337 48.795126 48.759007 48.713872 48.659926 48.597010 48.525410 48.444920 48.355913 48.258140 48.152057 48.037378 47.914648 47.783548 47.644709 47.497786 47.343501 47.181483 47.012544 46.836298 46.653641 46.464176 46.268882 46.067353 45.860649 45.648356 45.431608 45.209985 44.984687 44.755291 44.523053 44.287542 44.050065 43.810180 43.569230 43.326764 43.084147 42.840916 42.598447 42.356259 42.115727 41.876351 41.639491 41.404627 41.173090 40.944336 40.719661 40.498494 40.282083 40.069832 39.862931 39.660759 39.464441 39.273332 39.088484 38.909230 38.736546 38.569745 38.409720 38.255769 38.108701 37.967799 37.833785 37.705938 37.584888 37.469910 37.361547 37.259076 37.162950 37.072453 36.987950 36.908736 36.835092 36.766328 36.702639 36.643360 36.588604 36.537730 36.490773 36.447125 36.406742 36.369054 36.333945 36.300885 36.269688 36.239869 36.211177 36.183178 36.155556
36.533333 36.572344 36.611769 36.651960 36.693392 36.736344 36.781350 36.828613 36.878717 36.931788 36.988455 37.048761 37.113375 37.182254 37.256102 37.334786 37.419040 37.508636 37.604333 37.705809 37.813837 37.928001 38.049085 38.176573 38.311255 38.452517 38.601147 38.756434 38.919159 39.088512 39.265266 39.448511 39.639006 39.835749 40.039476 40.249097 40.465326 40.686988 40.914770 41.147421 41.385598 41.627984 41.875205 42.125884 42.380620 42.637986 42.898552 43.160856 43.425441 43.690821 43.957518 44.224034 44.490870 44.756534 45.021510 45.284323 45.545447 45.803438 46.058759 46.310013 46.557655 46.800345 47.038535 47.270952 47.498044 47.718613 47.933103 48.140402 48.340945 48.533710 48.719122 48.896253 49.065512 49.226069 49.378311 49.521504 49.656010 49.781193 49.897382 50.004035 50.101443 50.189158 50.267429 50.335898 50.394765 50.443763 50.483037 50.512411 50.531973 50.541634 50.541422 50.531338 50.511351 50.481546 50.441836 50.392394 50.333073 50.264139 50.185391 50.097183 49.999267 49.892088 49.775354 49.649605 49.514510 49.370705 49.217827 49.056608 48.886659 48.708809 48.522650 48.329107 48.127755 47.919616 47.704254 47.482780 47.254751 47.021364 46.782171 46.538445 46.289736 46.037384 45.780935 45.521786 45.259477 44.995452 44.729239 44.462318 44.194203 43.926392 43.658386 43.391686 43.125771 42.862138 42.600240 42.341550 42.085498 41.833521 41.585020 41.341384 41.101987 40.868159 40.639244 40.416506 40.199261 39.988695 39.784100 39.586579 39.395399 39.211577 39.034358 38.864669 38.701738 38.546398 38.397864 38.256872 38.122633 37.995784 37.875533 37.762423 37.655664 37.555702 37.461759 37.374183 37.292212 37.216101 37.145110 37.079402 37.018262 36.961767 36.909234 36.860652 36.815378 36.773320 36.733874 36.696871 36.661757 36.628286 36.595957 36.564454 36.533333
36.911111 36.954597 36.998502 37.043313 37.089375 37.137238 37.187169 37.239776 37.295243 37.354230 37.416834 37.483760 37.555014 37.631343 37.712656 37.799734 37.892389 37.991428 38.096561 38.208619 38.327206 38.453168 38.586004 38.726568 38.874251 39.029910 39.192828 39.363858 39.542177 39.728625 39.922275 40.123952 40.332624 40.549096 40.772238 41.002828 41.239641 41.483429 41.732877 41.988706 42.249523 42.516014 42.786717 43.062284 43.341194 43.624067 43.909334 44.197587 44.487222 44.778803 45.070707 45.363475 45.655482 45.947247 46.237157 46.525717 46.811341 47.094523 47.373721 47.649420 47.920133 48.186343 48.446632 48.701476 48.949542 49.191300 49.425506 49.652626 49.871510 50.082619 50.284903 50.478809 50.663393 50.839083 51.005040 51.161670 51.308237 51.445117 51.571679 51.688260 51.794331 51.890185 51.975393 52.050198 52.114269 52.167792 52.210532 52.242616 52.263903 52.274456 52.274228 52.263218 52.241472 52.208924 52.165712 52.111710 52.047150 51.971843 51.886118 51.789733 51.683113 51.565964 51.438813 51.301321 51.154118 50.996827 50.830182 50.653775 50.468445 50.273762 50.070670 49.858720 49.638960 49.410931 49.175782 48.933044 48.683964 48.428069 48.166694 47.899364 47.627495 47.350608 47.070188 46.785752 46.498845 46.208973 45.917725 45.624597 45.331208 45.037037 44.743716 44.450705 44.159634 43.869940 43.583234 43.298927 43.018596 42.741623 42.469540 42.201695 41.939564 41.682462 41.431794 41.186843 40.948938 40.717329 40.493257 40.275946 40.066543 39.864248 39.670108 39.483303 39.304779 39.133699 38.970905 38.815548 38.668368 38.528507 38.396601 38.271793 38.154612 38.044209 37.941010 37.844178 37.754035 37.669766 37.591592 37.518722 37.451281 37.388510 37.330440 37.276348 37.226175 37.179242 37.135402 37.094025 37.054882 37.017397 36.981262 36.945961 36.911111
37.288889 37.337113 37.385831 37.435457 37.486555 37.539460 37.594800 37.652823 37.714217 37.779136 37.848322 37.921834 38.000459 38.084155 38.173750 38.269098 38.371058 38.479377 38.594941 38.717386 38.847616 38.985154 39.130916 39.284310 39.446258 39.616052 39.794609 39.981108 40.176457 40.379718 40.591785 40.811606 41.040056 41.275972 41.520202 41.771478 42.030618 42.296255 42.569172 42.847912 43.133220 43.423559 43.719637 44.019843 44.324851 44.632991 44.944901 45.258869 45.575498 45.893048 46.212094 46.530884 46.849970 47.167602 47.484315 47.798381 48.110320 48.418444 48.723264 49.023146 49.318596 49.608051 49.892012 50.168998 50.439509 50.702159 50.957443 51.204078 51.442554 51.671695 51.891984 52.102355 52.303277 52.493798 52.674366 52.844142 53.003548 53.151856 53.289451 53.415718 53.530998 53.634783 53.727363 53.808335 53.877933 53.935858 53.982279 54.016997 54.040116 54.051536 54.051292 54.039382 54.015770 53.980554 53.933628 53.875190 53.805066 53.723555 53.630422 53.526067 53.410198 53.283321 53.145093 52.996128 52.836039 52.665552 52.484245 52.292954 52.091230 51.880024 51.658866 51.428820 51.189403 50.941790 50.685490 50.421787 50.150184 49.872068 49.586939 49.296279 48.999585 48.698423 48.392288 48.082815 47.769494 47.454017 47.135864 46.816766 46.496191 46.175893 45.855321 45.536234 45.218059 44.902543 44.589084 44.279404 43.972867 43.671152 43.373589 43.081799 42.795077 42.514973 42.240746 41.973866 41.713554 41.461191 41.215964 40.979158 40.749928 40.529455 40.316869 40.113241 39.917680 39.731148 39.552736 39.383291 39.221898 39.069288 38.924542 38.788278 38.659580 38.538954 38.425493 38.319592 38.220360 38.128084 38.041896 37.961977 37.887490 37.818512 37.754243 37.694661 37.639009 37.587169 37.538434 37.492595 37.448999 37.407351 37.367060 37.327747 37.288889
37.666667 37.719945 37.773715 37.828550 37.884856 37.943277 38.004131 38.068128 38.135490 38.206987 38.282740 38.363572 38.449500 38.541390 38.639151 38.743689 38.854796 38.973411 39.099210 39.233153 39.374797 39.525118 39.683552 39.851081 40.027018 40.212345 40.406251 40.609711 40.821789 41.043446 41.273623 41.513262 41.761181 42.018296 42.283309 42.557104 42.838272 43.127660 43.423757 43.727370 44.036893 44.353092 44.674278 45.001176 45.332026 45.667511 46.005816 46.347588 46.690970 47.036576 47.382526 47.729404 48.075329 48.420860 48.764130 49.105682 49.443681 49.778660 50.108835 50.434732 50.754638 51.069074 51.376410 51.677168 51.969814 52.254871 52.530911 52.798456 53.056192 53.304636 53.542594 53.770573 53.987500 54.193866 54.388722 54.572533 54.744471 54.904969 55.053318 55.189910 55.314152 55.426385 55.526130 55.613670 55.688635 55.751245 55.801237 55.838758 55.863654 55.875998 55.875738 55.862872 55.837450 55.799398 55.748867 55.685709 55.610183 55.522069 55.421734 55.308892 55.184021 55.046778 54.897752 54.736553 54.563885 54.379316 54.183670 53.976480 53.758696 53.529824 53.290936 53.041525 52.782782 52.514191 52.237064 51.950879 51.657064 51.355096 51.046510 50.730783 50.409547 50.082279 49.750696 49.414272 49.074794 48.731731 48.386919 48.039818 47.692300 47.343806 46.996224 46.648972 46.303937 45.960507 45.620546 45.283412 44.950929 44.622417 44.299646 43.981894 43.670864 43.365794 43.068302 42.777586 42.495173 42.220219 41.954151 41.696089 41.447350 41.207021 40.976306 40.754265 40.541982 40.338497 40.144773 39.959833 39.784519 39.617847 39.460535 39.311598 39.171633 39.039661 38.916158 38.800160 38.692024 38.590807 38.496752 38.408942 38.327510 38.251575 38.181159 38.115425 38.054292 37.996970 37.943279 37.892485 37.844312 37.798090 37.753452 37.709794 37.666667