<?xml version="1.0"?>
<VTKFile type="ImageData" version="0.1" byte_order="LittleEndian">
  <ImageData WholeExtent="0 180 0 180 0 0" Origin="0.0 0.0 0.0" Spacing="0.05 0.05 1">
    <Piece Extent="0 180 0 180 0 0">
      <PointData Scalars="Temperature">
        <DataArray type="Float32" Name="Temperature" format="ascii">
32.000000 32.000000 32.000000 32.000000 32.000000 32.000000 32.000000 32.000000 32.000000 32.000000 32.000000 32.000000 32.000000 32.000000 32.000000 32.000000 32.000000 32.000000 32.000000 32.000000 32.000000 32.000000 32.000000 32.000000 32.000000 32.000000 32.000000 32.000000 32.000000 32.000000 32.000000 32.000000 32.000000 32.000000 32.000000 32.000000 32.000000 32.000000 32.000000 32.000000 32.000000 32.000000 32.000000 32.000000 32.000000 32.000000 32.000000 32.000000 32.000000 32.000000 32.000000 32.000000 32.000000 32.000000 32.000000 32.000000 32.000000 32.000000 32.000000 32.000000 32.000000 32.000000 32.000000 32.000000 32.000000 32.000000 32.000000 32.000000 32.000000 32.000000 32.000000 32.000000 32.000000 32.000000 32.000000 32.000000 32.000000 32.000000 32.000000 32.000000 32.000000 32.000000 32.000000 32.000000 32.000000 32.000000 32.000000 32.000000 32.000000 32.000000 32.000000 32.000000 32.000000 32.000000 32.000000 32.000000 32.000000 32.000000 32.000000 32.000000 32.000000 32.000000 32.000000 32.000000 32.000000 32.000000 32.000000 32.000000 32.000000 32.000000 32.000000 32.000000 32.000000 32.000000 32.000000 32.000000 32.000000 32.000000 32.000000 32.000000 32.000000 32.000000 32.000000 32.000000 32.000000 32.000000 32.000000 32.000000 32.000000 32.000000 32.000000 32.000000 32.000000 32.000000 32.000000 32.000000 32.000000 32.000000 32.000000 32.000000 32.000000 32.000000 32.000000 32.000000 32.000000 32.000000 32.000000 32.000000 32.000000 32.000000 32.000000 32.000000 32.000000 32.000000 32.000000 32.000000 32.000000 32.000000 32.000000 32.000000 32.000000 32.000000 32.000000 32.000000 32.000000 32.000000 32.000000 32.000000 32.000000 32.000000 32.000000 32.000000 32.000000 32.000000 32.000000 32.000000 32.000000 32.000000 32.000000 32.000000 32.000000
32.377778 32.406721 32.435670 32.464631 32.493610 32.522614 32.551648 32.580717 32.609826 32.638982 32.668188 32.697448 32.726766 32.756148 32.785592 32.815105 32.844685 32.874338 32.904058 32.933852 32.963712 32.993643 33.023637 33.053696 33.083811 33.113982 33.144198 33.174457 33.204748 33.235065 33.265396 33.295734 33.326063 33.356376 33.386655 33.416890 33.447061 33.477157 33.507157 33.537048 33.566805 33.596416 33.625855 33.655107 33.684144 33.712952 33.741502 33.769778 33.797750 33.825402 33.852704 33.879640 33.906179 33.932305 33.957989 33.983213 34.007951 34.032184 34.055888 34.079045 34.101630 34.123630 34.145019 34.165785 34.185906 34.205370 34.224156 34.242256 34.259649 34.276329 34.292278 34.307490 34.321951 34.335654 34.348589 34.360749 34.372126 34.382716 34.392510 34.401506 34.409697 34.417083 34.423656 34.429417 34.434361 34.438488 34.441794 34.444281 34.445946 34.446789 34.446809 34.446007 34.444384 34.441939 34.438675 34.434592 34.429692 34.423977 34.417451 34.410115 34.401975 34.393032 34.383293 34.372762 34.361446 34.349349 34.336482 34.322849 34.308462 34.293328 34.277461 34.260868 34.243565 34.225561 34.206875 34.187517 34.167508 34.146858 34.125592 34.103721 34.081271 34.058256 34.034701 34.010623 33.986049 33.960995 33.935489 33.909550 33.883205 33.856472 33.829382 33.801951 33.774208 33.746172 33.717870 33.689321 33.660552 33.631579 33.602429 33.573118 33.543671 33.514102 33.484436 33.454683 33.424868 33.395001 33.365102 33.335181 33.305256 33.275334 33.245432 33.215555 33.185719 33.155926 33.126190 33.096511 33.066902 33.037361 33.007898 32.978511 32.949207 32.919983 32.890845 32.861788 32.832815 32.803922 32.775110 32.746373 32.717712 32.689118 32.660593 32.632127 32.603718 32.575360 32.547048 32.518775 32.490535 32.462322 32.434129 32.405950 32.377778
32.755556 32.813445 32.871347 32.929273 32.987237 33.045248 33.103320 33.161462 33.219687 33.278002 33.336419 33.394944 33.453588 33.512354 33.571253 33.630282 33.689454 33.748762 33.808216 33.867807 33.927542 33.987410 34.047413 34.107538 34.167784 34.228133 34.288583 34.349111 34.409711 34.470357 34.531039 34.591727 34.652408 34.713047 34.773628 34.834112 34.894480 34.954688 35.014714 35.074512 35.134055 35.193294 35.252201 35.310722 35.368828 35.426462 35.483592 35.540162 35.596137 35.651459 35.706094 35.759983 35.813092 35.865362 35.916758 35.967225 36.016727 36.065211 36.112644 36.158974 36.204169 36.248182 36.290983 36.332528 36.372790 36.411728 36.449320 36.485528 36.520332 36.553698 36.585612 36.616042 36.644975 36.672387 36.698266 36.722590 36.745353 36.766535 36.786130 36.804124 36.820513 36.835284 36.848435 36.859957 36.869848 36.878102 36.884718 36.889691 36.893022 36.894707 36.894748 36.893145 36.889897 36.885007 36.878477 36.870310 36.860508 36.849077 36.836021 36.821348 36.805062 36.787174 36.767690 36.746624 36.723983 36.699786 36.674041 36.646771 36.617985 36.587711 36.555962 36.522768 36.488146 36.452130 36.414739 36.376012 36.335972 36.294661 36.252105 36.208351 36.163426 36.117380 36.070244 36.022072 35.972895 35.922770 35.871730 35.819833 35.767113 35.713630 35.659418 35.604537 35.549021 35.492930 35.436297 35.379180 35.321611 35.263648 35.205319 35.146680 35.087758 35.028604 34.969243 34.909724 34.850068 34.790320 34.730498 34.670643 34.610769 34.550914 34.491089 34.431326 34.371633 34.312039 34.252548 34.193183 34.133947 34.074860 34.015918 33.957139 33.898517 33.840066 33.781777 33.723659 33.665702 33.607913 33.550279 33.492803 33.435471 33.378282 33.321222 33.264289 33.207465 33.150746 33.094117 33.037568 32.981084 32.924655 32.868265 32.811904 32.755556
33.133333 33.220177 33.307039 33.393939 33.480893 33.567921 33.655038 33.742264 33.829611 33.917098 34.004734 34.092538 34.180515 34.268683 34.357043 34.445610 34.534380 34.623368 34.712564 34.801979 34.891599 34.981431 35.071456 35.161678 35.252070 35.342632 35.433333 35.524167 35.615096 35.706110 35.797166 35.888247 35.979304 36.070316 36.161226 36.252009 36.342602 36.432975 36.523059 36.612820 36.702182 36.791107 36.879516 36.967367 37.054576 37.141096 37.226844 37.311769 37.395784 37.478838 37.560843 37.641746 37.721461 37.799934 37.877079 37.952844 38.027146 38.099934 38.171128 38.240681 38.308515 38.374589 38.438828 38.501195 38.561622 38.620074 38.676491 38.730842 38.783073 38.833157 38.881048 38.926722 38.970140 39.011282 39.050114 39.086622 39.120776 39.152565 39.181966 39.208971 39.233559 39.255726 39.275457 39.292747 39.307587 39.319973 39.329898 39.337360 39.342357 39.344886 39.344947 39.342541 39.337669 39.330331 39.320534 39.308278 39.293573 39.276420 39.256831 39.234811 39.210376 39.183531 39.154297 39.122682 39.088710 39.052394 39.013763 38.972832 38.929637 38.884196 38.836552 38.786726 38.734768 38.680703 38.624588 38.566453 38.506360 38.444344 38.380472 38.314786 38.247357 38.178229 38.107481 38.035160 37.961347 37.886094 37.809484 37.731570 37.652439 37.572144 37.490774 37.408382 37.325056 37.240848 37.155847 37.070101 36.983698 36.896684 36.809142 36.721116 36.632686 36.543891 36.454806 36.365466 36.275941 36.186261 36.096490 36.006653 35.916808 35.826975 35.737206 35.647515 35.557948 35.468514 35.379252 35.290167 35.201291 35.112623 35.024192 34.935991 34.848043 34.760337 34.672889 34.585686 34.498740 34.412033 34.325571 34.239337 34.153329 34.067529 33.981931 33.896515 33.811273 33.726181 33.641229 33.556394 33.471661 33.387007 33.302415 33.217864 33.133333
33.511111 33.626920 33.742755 33.858638 33.974596 34.090651 34.206829 34.323148 34.439635 34.556303 34.673179 34.790272 34.907607 35.025187 35.143036 35.261151 35.379552 35.498232 35.617206 35.736459 35.856005 35.975819 36.095911 36.216249 36.336837 36.457635 36.578641 36.699807 36.821125 36.942538 37.064031 37.185539 37.307041 37.428463 37.549776 37.670899 37.791796 37.912378 38.032602 38.152372 38.271639 38.390301 38.508301 38.625533 38.741937 38.857399 38.971856 39.085192 39.197339 39.308181 39.417647 39.525621 39.632031 39.736761 39.839741 39.940858 40.040042 40.137184 40.232218 40.325040 40.415588 40.503764 40.589510 40.672735 40.753389 40.831387 40.906685 40.979207 41.048914 41.115739 41.179650 41.240588 41.298526 41.353413 41.405229 41.453930 41.499501 41.541906 41.581133 41.617153 41.649957 41.679524 41.705846 41.728907 41.748703 41.765223 41.778462 41.788415 41.795080 41.798453 41.798535 41.795326 41.788826 41.779040 41.765970 41.749625 41.730006 41.707129 41.680996 41.651626 41.619025 41.583218 41.544213 41.502040 41.456712 41.408266 41.356718 41.302112 41.244471 41.183845 41.120262 41.053782 40.984438 40.912299 40.837403 40.759828 40.679618 40.596860 40.511605 40.423945 40.333938 40.241683 40.147243 40.050724 39.952191 39.851757 39.749490 39.645505 39.539873 39.432711 39.324091 39.214132 39.102903 38.990523 38.877061 38.762633 38.647303 38.531186 38.414342 38.296881 38.178856 38.060373 37.941481 37.822277 37.702804 37.583152 37.463357 37.343502 37.223616 37.103773 36.983994 36.864347 36.744845 36.625546 36.506458 36.387629 36.269063 36.150798 36.032830 35.915193 35.797875 35.680901 35.564257 35.447960 35.331989 35.216356 35.101038 34.986037 34.871328 34.756908 34.642750 34.528845 34.415164 34.301693 34.188402 34.075274 33.962277 33.849390 33.736584 33.623834 33.511111
33.888889 34.033678 34.178499 34.323383 34.468358 34.613459 34.758710 34.904145 35.049783 35.195659 35.341787 35.488199 35.634904 35.781932 35.929284 36.076987 36.225035 36.373452 36.522223 36.671365 36.820857 36.970711 37.120893 37.271412 37.422223 37.573326 37.724669 37.876244 38.027987 38.179881 38.331853 38.483878 38.635871 38.787799 38.939567 39.091132 39.242389 39.393288 39.543712 39.693605 39.842842 39.991356 40.139017 40.285751 40.431421 40.575947 40.719186 40.861057 41.001412 41.140164 41.277167 41.412332 41.545511 41.676617 41.805504 41.932086 42.056221 42.177826 42.296764 42.412958 42.526277 42.636650 42.743955 42.848127 42.949054 43.046676 43.140895 43.231658 43.318874 43.402501 43.482460 43.558713 43.631193 43.699870 43.764686 43.825619 43.882619 43.935669 43.984731 44.029790 44.070816 44.107800 44.140718 44.169563 44.194318 44.214980 44.231536 44.243984 44.252318 44.256537 44.256639 44.252624 44.244497 44.232257 44.215913 44.195468 44.170936 44.142319 44.109638 44.072899 44.032128 43.987334 43.938549 43.885789 43.829093 43.768479 43.703998 43.635672 43.563563 43.487699 43.408150 43.324954 43.238191 43.147906 43.054190 42.957096 42.856725 42.753137 42.646445 42.536717 42.424073 42.308589 42.190393 42.069567 41.946247 41.820517 41.692522 41.562347 41.430140 41.295989 41.160045 41.022395 40.883189 40.742513 40.600517 40.457283 40.312956 40.167616 40.021401 39.874386 39.726703 39.578418 39.429659 39.280482 39.131005 38.981278 38.831410 38.681440 38.531467 38.381523 38.231695 38.082007 37.932534 37.783293 37.634348 37.485706 37.337423 37.189495 37.041970 36.894837 36.748131 36.601838 36.455981 36.310542 36.165534 36.020933 35.876746 35.732943 35.589522 35.446452 35.303724 35.161303 35.019174 34.877300 34.735661 34.594219 34.452948 34.311812 34.170781 34.029817 33.888889
34.266667 34.440454 34.614281 34.788181 34.962197 35.136358 35.310708 35.485273 35.660094 35.835192 36.010607 36.186353 36.362469 36.538960 36.715862 36.893172 37.070920 37.249094 37.427721 37.606777 37.786282 37.966202 38.146551 38.327281 38.508398 38.689845 38.871616 39.053642 39.235909 39.418334 39.600893 39.783489 39.966090 40.148585 40.330930 40.513005 40.694753 40.876042 41.056806 41.236900 41.416250 41.594702 41.772171 41.948496 42.123583 42.297265 42.469442 42.639940 42.808657 42.975414 43.140107 43.302557 43.462656 43.620230 43.775170 43.927305 44.076530 44.222680 44.365656 44.505297 44.641513 44.774152 44.903131 45.028310 45.149614 45.266915 45.380147 45.489196 45.594005 45.694471 45.790548 45.882147 45.969229 46.051720 46.129587 46.202768 46.271238 46.334947 46.393876 46.447984 46.497258 46.541665 46.581197 46.615830 46.645558 46.670364 46.690244 46.705189 46.715196 46.720261 46.720383 46.715563 46.705803 46.691109 46.671482 46.646936 46.617474 46.583116 46.543867 46.499754 46.450785 46.396996 46.338399 46.275038 46.206931 46.134133 46.056667 45.974599 45.887960 45.796828 45.701242 45.601293 45.497029 45.388553 45.275924 45.159257 45.038619 44.914141 44.785898 44.654031 44.518627 44.379836 44.237752 44.092536 43.944287 43.793176 43.639304 43.482849 43.323916 43.162684 42.999260 42.833826 42.666487 42.497424 42.326738 42.154608 41.981131 41.806479 41.630744 41.454092 41.276606 41.098442 40.919676 40.740454 40.560841 40.380973 40.200906 40.020761 39.840584 39.660486 39.480499 39.300723 39.121180 38.941955 38.763061 38.584570 38.406485 38.228865 38.051705 37.875051 37.698889 37.523254 37.348124 37.173524 36.999425 36.825841 36.652737 36.480117 36.307944 36.136211 35.964877 35.793928 35.623320 35.453032 35.283017 35.113250 34.943684 34.774285 34.605008 34.435817 34.266667
34.644444 34.847252 35.050104 35.253046 35.456119 35.659371 35.862837 36.066566 36.270585 36.474944 36.679663 36.884789 37.090334 37.296341 37.502812 37.709787 37.917257 38.125257 38.333766 38.542811 38.752360 38.962432 39.172981 39.384018 39.595483 39.807377 40.019624 40.232215 40.445061 40.658140 40.871347 41.084649 41.297927 41.511133 41.724134 41.936871 42.149195 42.361035 42.572230 42.782696 42.992258 43.200823 43.408205 43.614301 43.818915 44.021936 44.223163 44.422475 44.619667 44.814616 45.007112 45.197030 45.384162 45.568381 45.749483 45.927344 46.101764 46.272623 46.439732 46.602976 46.762175 46.917225 47.067956 47.214275 47.356025 47.493123 47.625428 47.752868 47.875317 47.992715 48.104950 48.211974 48.313690 48.410060 48.501002 48.586485 48.666444 48.740855 48.809664 48.872855 48.930384 48.982241 49.028393 49.068833 49.103536 49.132499 49.155706 49.173154 49.184835 49.190748 49.190890 49.185263 49.173870 49.156713 49.133802 49.105141 49.070748 49.030628 48.984806 48.933291 48.876118 48.813298 48.744876 48.670870 48.591336 48.506297 48.415823 48.319946 48.218747 48.112268 48.000605 47.883811 47.761996 47.635224 47.503622 47.367263 47.226290 47.080789 46.930916 46.776767 46.618514 46.456262 46.290193 46.120423 45.947143 45.770476 45.590621 45.407705 45.221935 45.033437 44.842422 44.649016 44.453432 44.255793 44.056307 43.855095 43.652360 43.448215 43.242857 43.036390 42.829003 42.620789 42.411926 42.202496 41.992664 41.782501 41.572158 41.361694 41.151245 40.940857 40.730652 40.520662 40.310995 40.101672 39.892782 39.684337 39.476411 39.269003 39.062174 38.855913 38.650266 38.445212 38.240786 38.036956 37.833746 37.631117 37.429080 37.227591 37.026650 36.826208 36.626254 36.426737 36.227637 36.028900 35.830498 35.632376 35.434499 35.236813 35.039275 34.841835 34.644444
35.022222 35.254074 35.485977 35.717983 35.950144 36.182506 36.415124 36.648034 36.881295 37.114933 37.349005 37.583530 37.818559 38.054102 38.290208 38.526872 38.764138 39.001991 39.240465 39.479531 39.719217 39.959479 40.200333 40.441721 40.683649 40.926040 41.168890 41.412106 41.655670 41.899470 42.143477 42.387561 42.631677 42.875680 43.119509 43.363004 43.606087 43.848583 44.090402 44.331351 44.571327 44.810124 45.047628 45.283620 45.517976 45.750467 45.980960 46.209219 46.435105 46.658379 46.878895 47.096415 47.310791 47.521787 47.729256 47.932967 48.132779 48.328466 48.519895 48.706850 48.889208 49.066766 49.239411 49.406955 49.569297 49.726267 49.877775 50.023670 50.163874 50.298255 50.426747 50.549237 50.665671 50.775951 50.880037 50.977847 51.069351 51.154481 51.233214 51.305499 51.371319 51.430632 51.483429 51.529680 51.569377 51.602499 51.629043 51.648996 51.662356 51.669118 51.669280 51.662844 51.649812 51.630192 51.603985 51.571208 51.531864 51.485978 51.433557 51.374635 51.309221 51.237359 51.159067 51.074400 50.983381 50.886079 50.782527 50.672808 50.556965 50.435098 50.307259 50.173567 50.034088 49.888956 49.738251 49.582125 49.420671 49.254060 49.082396 48.905868 48.724591 48.538769 48.348528 48.154086 47.955577 47.753229 47.547185 47.337679 47.124857 46.908961 46.690137 46.468627 46.244578 46.018231 45.789727 45.559304 45.327095 45.093333 44.858142 44.621744 44.384252 44.145878 43.906723 43.666982 43.426746 43.186194 42.945402 42.704534 42.463649 42.222896 41.982320 41.742052 41.502121 41.262640 41.023628 40.785178 40.547295 40.310057 40.073454 39.837550 39.602324 39.367822 39.134013 38.900930 38.668534 38.436840 38.205803 37.975427 37.745660 37.516493 37.287870 37.059771 36.832136 36.604935 36.378108 36.151617 35.925398 35.699408 35.473584 35.247875 35.022222
35.400000 35.660923 35.921903 36.183003 36.444276 36.705784 36.967575 37.229712 37.492233 37.755202 38.018647 38.282629 38.547166 38.812314 39.078078 39.344509 39.611600 39.879393 40.147866 40.417053 40.686916 40.957478 41.228684 41.500547 41.772991 42.046018 42.319534 42.593525 42.867879 43.142566 43.417453 43.692498 43.967545 44.242536 44.517298 44.791753 45.065711 45.339078 45.611645 45.883303 46.153826 46.423091 46.690858 46.956990 47.221234 47.483442 47.743353 48.000810 48.255544 48.507392 48.756084 49.001452 49.243225 49.481238 49.715223 49.945016 50.170360 50.391095 50.606974 50.817849 51.023485 51.223743 51.418408 51.607353 51.790381 51.967380 52.138170 52.302658 52.460684 52.612168 52.756971 52.895028 53.026221 53.150498 53.267759 53.377966 53.481036 53.576941 53.665614 53.747037 53.821156 53.887959 53.947407 53.999492 54.044186 54.081484 54.111367 54.133833 54.148873 54.156485 54.156668 54.149421 54.134749 54.112655 54.083151 54.046240 54.001944 53.950268 53.891243 53.824878 53.751215 53.670267 53.582090 53.486705 53.384179 53.274543 53.157882 53.034236 52.903707 52.766348 52.622281 52.471571 52.314360 52.150730 51.980842 51.804792 51.622764 51.434867 51.241306 51.042205 50.837785 50.628185 50.413642 50.194306 49.970428 49.742168 49.509786 49.273449 49.033425 48.789882 48.543095 48.293231 48.040564 47.785257 47.527584 47.267701 47.005873 46.742249 46.477085 46.210518 45.942791 45.674028 45.404458 45.134190 44.863437 44.592291 44.320947 44.049482 43.778071 43.506774 43.235746 42.965032 42.694767 42.424978 42.155781 41.887188 41.619296 41.352101 41.085682 40.820021 40.555179 40.291127 40.027907 39.765479 39.503871 39.243033 38.982976 38.723643 38.465032 38.207080 37.949770 37.693037 37.436851 37.181143 36.925875 36.670976 36.416399 36.162073 35.907942 35.653938 35.400000
35.777778 36.067800 36.357890 36.648110 36.938531 37.229209 37.520217 37.811601 38.103436 38.395757 38.688636 38.982099 39.276212 39.570990 39.866494 40.162722 40.459729 40.757497 41.056073 41.355421 41.655578 41.956489 42.258177 42.560571 42.863678 43.167406 43.471748 43.776591 44.081910 44.387571 44.693532 44.999635 45.305822 45.611911 45.917827 46.223367 46.528435 46.832808 47.136372 47.438885 47.740216 48.040104 48.338404 48.634839 48.929248 49.221345 49.510956 49.797784 50.081650 50.362249 50.639397 50.912788 51.182234 51.447435 51.708203 51.964243 52.215375 52.461313 52.701885 52.936821 53.165960 53.389048 53.605939 53.816400 54.020299 54.217425 54.407664 54.590827 54.766818 54.935472 55.096710 55.250388 55.396444 55.534757 55.665280 55.787912 55.902618 56.009317 56.107985 56.198557 56.281017 56.355317 56.421447 56.479370 56.529082 56.570556 56.603792 56.628772 56.645498 56.653962 56.654163 56.646105 56.629787 56.605220 56.572404 56.531359 56.482087 56.424618 56.358957 56.285143 56.203187 56.113142 56.015024 55.908901 55.794799 55.672801 55.542944 55.405331 55.260011 55.107109 54.946688 54.778893 54.603806 54.421595 54.232358 54.036287 53.833496 53.624202 53.408535 53.186733 52.958944 52.725424 52.486335 52.241952 51.992448 51.738112 51.479124 51.215785 50.948282 50.676919 50.401887 50.123492 49.841922 49.557484 49.270358 48.980846 48.689120 48.395472 48.100063 47.803173 47.504948 47.205653 46.905417 46.604489 46.302981 46.001119 45.699000 45.396829 45.094682 44.792744 44.491071 44.189827 43.889049 43.588878 43.289334 42.990535 42.692485 42.395281 42.098911 41.803449 41.508872 41.215233 40.922494 40.630693 40.339779 40.049771 39.760610 39.472300 39.184773 38.898017 38.611959 38.326574 38.041785 37.757553 37.473799 37.190475 36.907501 36.624819 36.342349 36.060028 35.777778
36.155556 36.474710 36.793937 37.113315 37.432910 37.752802 38.073050 38.393735 38.714904 39.036639 39.358975 39.681990 40.005706 40.330197 40.655469 40.981587 41.308544 41.636396 41.965114 42.294745 42.625243 42.956639 43.288867 43.621944 43.955780 44.290379 44.625625 44.961505 45.297881 45.634719 45.971856 46.309239 46.646681 46.984108 47.321309 47.658187 47.994509 48.330157 48.664876 48.998528 49.330836 49.661644 49.990656 50.317699 50.642463 50.964760 51.284265 51.600781 51.913976 52.223642 52.529444 52.831170 53.128485 53.421178 53.708918 53.991499 54.268598 54.540018 54.805451 55.064709 55.317503 55.563662 55.802916 56.035110 56.259999 56.477447 56.687235 56.889245 57.083284 57.269257 57.446993 57.616417 57.777386 57.929840 58.073660 58.208801 58.335168 58.452728 58.561406 58.661180 58.751991 58.833826 58.906642 58.970431 59.025161 59.070831 59.107419 59.134924 59.153335 59.162653 59.162874 59.154000 59.136037 59.108984 59.072857 59.027658 58.973411 58.910119 58.837818 58.756515 58.666259 58.567063 58.458990 58.342062 58.216358 58.081912 57.938824 57.787139 57.626980 57.458407 57.281567 57.096539 56.903494 56.702530 56.493844 56.277554 56.053884 55.822971 55.585064 55.340319 55.089009 54.831307 54.567507 54.297797 54.022488 53.741780 53.455999 53.165352 52.870175 52.570679 52.267204 51.959962 51.649293 51.335405 51.018634 50.699179 50.377368 50.053389 49.727558 49.400047 49.071157 48.741043 48.409987 48.078126 47.745721 47.412887 47.079864 46.746747 46.413750 46.080947 45.748529 45.416548 45.085170 44.754428 44.424462 44.095286 43.767015 43.439647 43.113272 42.787871 42.463514 42.140164 41.817871 41.496585 41.176336 40.857062 40.538774 40.221401 39.904937 39.589305 39.274480 38.960381 38.646970 38.334161 38.021903 37.710110 37.398719 37.087644 36.776814 36.466144 36.155556
36.533333 36.881651 37.230053 37.578616 37.927429 38.276560 38.626099 38.976107 39.326673 39.677845 40.029709 40.382301 40.735703 41.089934 41.445069 41.801112 42.158128 42.516101 42.875087 43.235048 43.596027 43.957964 44.320889 44.684715 45.049457 45.415004 45.781349 46.148358 46.516003 46.884123 47.252670 47.621453 47.990403 48.359303 48.728059 49.096428 49.464292 49.831384 50.197562 50.562534 50.926139 51.288060 51.648117 52.005974 52.361434 52.714144 53.063892 53.410315 53.753189 54.092143 54.426947 54.757229 55.082755 55.403155 55.718199 56.027526 56.330910 56.628005 56.918597 57.202356 57.479084 57.748474 58.010344 58.264412 58.510519 58.748411 58.977948 59.198905 59.411168 59.614538 59.808923 59.994155 60.170160 60.336799 60.494017 60.641700 60.779808 60.908249 61.026999 61.135986 61.235195 61.324570 61.404106 61.473762 61.533536 61.583400 61.623354 61.653383 61.673486 61.683658 61.683899 61.674210 61.654592 61.625056 61.585602 61.536250 61.477002 61.407887 61.328910 61.240115 61.141510 61.033152 60.915059 60.787306 60.649920 60.502996 60.346573 60.180772 60.005648 59.821344 59.627936 59.425594 59.214415 58.994598 58.766261 58.529634 58.284855 58.032183 57.771781 57.503933 57.228823 56.946762 56.657949 56.362719 56.061287 55.754003 55.441095 55.122928 54.799733 54.471884 54.139617 53.803308 53.463188 53.119632 52.772866 52.423256 52.071017 51.716504 51.359915 51.001591 50.641714 50.280602 49.918419 49.555460 49.191867 48.827912 48.463713 48.099516 47.735414 47.371629 47.008230 46.645410 46.283216 45.921814 45.561229 45.201600 44.842931 44.485335 44.128796 43.773403 43.419123 43.066020 42.714045 42.363240 42.013544 41.664975 41.317462 40.971003 40.625519 40.280989 39.937325 39.594494 39.252400 38.910995 38.570183 38.229900 37.890050 37.550560 37.211334 36.872289 36.533333
36.911111 37.288628 37.666234 38.044025 38.422081 38.800501 39.179356 39.558747 39.938733 40.319411 40.700828 41.083079 41.466193 41.850259 42.235290 42.621366 43.008479 43.396699 43.785997 44.176429 44.567945 44.960584 45.354270 45.749026 46.144750 46.541445 46.938980 47.337339 47.736361 48.136005 48.536084 48.936532 49.337129 49.737787 50.138255 50.538420 50.938002 51.336860 51.734690 52.131325 52.526433 52.919825 53.311147 53.700189 54.086575 54.470079 54.850309 55.227023 55.599820 55.968447 56.332499 56.691716 57.045694 57.394173 57.736755 58.073185 58.403076 58.726185 59.042143 59.350720 59.651568 59.944480 60.229132 60.505339 60.772808 61.031376 61.280783 61.520892 61.751474 61.972417 62.183526 62.384712 62.575810 62.756755 62.927410 63.087729 63.237604 63.377001 63.505838 63.624095 63.731707 63.828665 63.914922 63.990474 64.055289 64.109367 64.152686 64.185249 64.207043 64.218072 64.218332 64.207824 64.186554 64.154523 64.111744 64.058219 63.993971 63.919002 63.833350 63.737018 63.630058 63.512481 63.384355 63.245700 63.096607 62.937106 62.767312 62.587273 62.397128 62.196945 61.986893 61.767063 61.537653 61.298778 61.050671 60.793469 60.527439 60.252744 59.969681 59.678438 59.379342 59.072602 58.758573 58.437482 58.109706 57.775487 57.435220 57.089158 56.737706 56.381123 56.019821 55.654057 55.284244 54.910635 54.533636 54.153490 53.770593 53.385172 52.997609 52.608112 52.217042 51.824589 51.431088 51.036705 50.641752 50.246368 49.850837 49.455272 49.059929 48.664895 48.270395 47.876491 47.483378 47.091093 46.699801 46.309516 45.920374 45.532368 45.145604 44.760055 44.375803 43.992801 43.611104 43.230652 42.851476 42.473500 42.096735 41.721094 41.346566 40.973056 40.600534 40.228900 39.858105 39.488045 39.118658 38.749837 38.381507 38.013562 37.645915 37.278463 36.911111
37.288889 37.695638 38.102488 38.509534 38.916881 39.324615 39.732843 40.141640 40.551113 40.961322 41.372372 41.784307 42.197227 42.611158 43.026192 43.442335 43.859670 44.278179 44.697931 45.118887 45.541100 45.964503 46.389133 46.814895 47.241804 47.669738 48.098689 48.528504 48.959151 49.390444 49.822327 50.254581 50.687122 51.119699 51.552199 51.984340 52.415981 52.846807 53.276650 53.705165 54.132158 54.557256 54.980240 55.400714 55.818437 56.232992 56.644121 57.051393 57.454534 57.853105 58.246822 58.635245 59.018086 59.394906 59.765424 60.129209 60.485988 60.835348 61.177029 61.510641 61.835942 62.152570 62.460306 62.758820 63.047921 63.327309 63.596823 63.856200 64.105305 64.343913 64.571917 64.789126 64.995458 65.190757 65.374963 65.547950 65.709680 65.860051 65.999042 66.126576 66.242642 66.347183 66.440197 66.521643 66.591523 66.649811 66.696509 66.731602 66.755095 66.766979 66.767257 66.755932 66.733002 66.698479 66.652360 66.594665 66.525393 66.444574 66.352208 66.248340 66.132973 66.006169 65.867941 65.718368 65.557476 65.385369 65.202088 65.007763 64.802455 64.586325 64.359457 64.122046 63.874201 63.616152 63.348035 63.070118 62.782565 62.485678 62.179651 61.864820 61.541404 61.209772 60.870164 60.522979 60.168475 59.807072 59.439045 59.064828 58.684705 58.299121 57.908362 57.512876 57.112947 56.709020 56.301368 55.890429 55.476462 55.059889 54.640950 54.220049 53.797404 53.373393 52.948210 52.522206 52.095548 51.668557 51.241371 50.814282 50.387397 49.960976 49.535099 49.109991 48.685706 48.262435 47.840207 47.419180 46.999359 46.580870 46.163696 45.747934 45.333544 44.920596 44.509032 44.098895 43.690112 43.282700 42.876572 42.471724 42.068058 41.665548 41.264086 40.863630 40.464066 40.065334 39.667316 39.269938 38.873081 38.476659 38.080554 37.684668 37.288889
37.666667 38.102684 38.538809 38.975154 39.411818 39.848919 40.286544 40.724811 41.163794 41.603609 42.044315 42.486025 42.928777 43.372679 43.817748 44.264082 44.711677 45.160616 45.610871 46.062511 46.515481 46.969831 47.425476 47.882448 48.340630 48.800031 49.260503 49.722026 50.184421 50.647642 51.111472 51.575837 52.040485 52.505311 52.970029 53.434502 53.898408 54.361581 54.823664 55.284461 55.743585 56.200809 56.655719 57.108063 57.557400 58.003457 58.445774 58.884059 59.317840 59.746810 60.170490 60.588569 61.000566 61.406169 61.804906 62.196471 62.580406 62.956419 63.324072 63.683092 64.033071 64.373758 64.704778 65.025907 65.336808 65.637289 65.927050 66.205930 66.473670 66.730142 66.975126 67.208522 67.430149 67.639934 67.837730 68.023490 68.197097 68.358522 68.507677 68.644548 68.769068 68.881235 68.981000 69.068369 69.143308 69.205823 69.255895 69.293529 69.318715 69.331458 69.331755 69.319608 69.295022 69.257995 69.208542 69.146659 69.072369 68.985669 68.886595 68.775146 68.651373 68.515281 68.366941 68.206369 68.033658 67.848838 67.652030 67.443285 67.222754 66.990511 66.746743 66.491551 66.225159 65.947699 65.659434 65.360527 65.051283 64.731894 64.402706 64.063942 63.715983 63.359081 62.993649 62.619964 62.238467 61.849453 61.453384 61.050569 60.641484 60.226445 59.805935 59.380268 58.949930 58.515226 58.076636 57.634452 57.189140 56.740974 56.290399 55.837670 55.383205 54.927232 54.470142 54.012134 53.553568 53.094611 52.635590 52.176641 51.718056 51.259939 50.802546 50.345951 49.890375 49.435862 48.982597 48.530597 48.080013 47.630834 47.183181 46.737020 46.292438 45.849380 45.407906 44.967940 44.529516 44.092542 43.657026 43.222863 42.790037 42.358434 41.928015 41.498660 41.070310 40.642840 40.216175 39.790186 39.364784 38.939841 38.515255 38.090901 37.666667