<?xml version="1.0"?>
<VTKFile type="ImageData" version="0.1" byte_order="LittleEndian">
  <ImageData WholeExtent="0 180 0 180 0 0" Origin="0.0 0.0 0.0" Spacing="0.05 0.05 1">
    <Piece Extent="0 180 0 180 0 0">
      <PointData Scalars="Temperature">
        <DataArray type="Float32" Name="Temperature" format="ascii">
32.000000 32.000000 32.000000 32.000000 32.000000 32.000000 32.000000 32.000000 32.000000 32.000000 32.000000 32.000000 32.000000 32.000000 32.000000 32.000000 32.000000 32.000000 32.000000 32.000000 32.000000 32.000000 32.000000 32.000000 32.000000 32.000000 32.000000 32.000000 32.000000 32.000000 32.000000 32.000000 32.000000 32.000000 32.000000 32.000000 32.000000 32.000000 32.000000 32.000000 32.000000 32.000000 32.000000 32.000000 32.000000 32.000000 32.000000 32.000000 32.000000 32.000000 32.000000 32.000000 32.000000 32.000000 32.000000 32.000000 32.000000 32.000000 32.000000 32.000000 32.000000 32.000000 32.000000 32.000000 32.000000 32.000000 32.000000 32.000000 32.000000 32.000000 32.000000 32.000000 32.000000 32.000000 32.000000 32.000000 32.000000 32.000000 32.000000 32.000000 32.000000 32.000000 32.000000 32.000000 32.000000 32.000000 32.000000 32.000000 32.000000 32.000000 32.000000 32.000000 32.000000 32.000000 32.000000 32.000000 32.000000 32.000000 32.000000 32.000000 32.000000 32.000000 32.000000 32.000000 32.000000 32.000000 32.000000 32.000000 32.000000 32.000000 32.000000 32.000000 32.000000 32.000000 32.000000 32.000000 32.000000 32.000000 32.000000 32.000000 32.000000 32.000000 32.000000 32.000000 32.000000 32.000000 32.000000 32.000000 32.000000 32.000000 32.000000 32.000000 32.000000 32.000000 32.000000 32.000000 32.000000 32.000000 32.000000 32.000000 32.000000 32.000000 32.000000 32.000000 32.000000 32.000000 32.000000 32.000000 32.000000 32.000000 32.000000 32.000000 32.000000 32.000000 32.000000 32.000000 32.000000 32.000000 32.000000 32.000000 32.000000 32.000000 32.000000 32.000000 32.000000 32.000000 32.000000 32.000000 32.000000 32.000000 32.000000 32.000000 32.000000 32.000000 32.000000 32.000000 32.000000 32.000000 32.000000 32.000000 32.000000
32.377778 32.404871 32.431972 32.459090 32.486233 32.513409 32.540625 32.567892 32.595212 32.622598 32.650051 32.677583 32.705194 32.732894 32.760684 32.788572 32.816557 32.844646 32.872837 32.901136 32.929539 32.958050 32.986661 33.015379 33.044192 33.073104 33.102103 33.131189 33.160348 33.189581 33.218869 33.248211 33.277587 33.306994 33.336409 33.365827 33.395224 33.424591 33.453904 33.483152 33.512307 33.541360 33.570278 33.599051 33.627647 33.656052 33.684234 33.712179 33.739852 33.767240 33.794307 33.821040 33.847403 33.873381 33.898941 33.924068 33.948728 33.972907 33.996574 34.019714 34.042298 34.064312 34.085728 34.106534 34.126705 34.146229 34.165083 34.183257 34.200730 34.217494 34.233530 34.248832 34.263382 34.277176 34.290199 34.302447 34.313908 34.324578 34.334449 34.343516 34.351773 34.359218 34.365843 34.371650 34.376631 34.380788 34.384116 34.386616 34.388285 34.389123 34.389130 34.388306 34.386652 34.384167 34.380854 34.376714 34.371749 34.365961 34.359355 34.351932 34.343698 34.334654 34.324811 34.314169 34.302739 34.290525 34.277539 34.263784 34.249276 34.234021 34.218034 34.201323 34.183908 34.165795 34.147008 34.127554 34.107460 34.086735 34.065405 34.043484 34.020999 33.997963 33.974408 33.950346 33.925811 33.900816 33.875396 33.849565 33.823358 33.796790 33.769896 33.742690 33.715208 33.687464 33.659492 33.631308 33.602943 33.574412 33.545746 33.516958 33.488078 33.459116 33.430103 33.401047 33.371974 33.342893 33.313828 33.284783 33.255784 33.226831 33.197947 33.169132 33.140404 33.111764 33.083226 33.054789 33.026466 32.998252 32.970160 32.942183 32.914330 32.886594 32.858982 32.831485 32.804109 32.776844 32.749691 32.722643 32.695697 32.668846 32.642086 32.615407 32.588806 32.562272 32.535801 32.509381 32.483007 32.456668 32.430356 32.404062 32.377778
32.755556 32.809747 32.863956 32.918197 32.972489 33.026847 33.081288 33.135824 33.190475 33.245250 33.300167 33.355234 33.410468 33.465872 33.521465 33.577245 33.633229 33.689413 33.745811 33.802414 33.859237 33.916264 33.973508 34.030949 34.088597 34.146428 34.204448 34.262629 34.320972 34.379446 34.438050 34.496744 34.555525 34.614349 34.673210 34.732058 34.790883 34.849632 34.908290 34.966801 35.025146 35.083265 35.141138 35.198700 35.255927 35.312755 35.369155 35.425061 35.480444 35.535237 35.589408 35.642889 35.695651 35.747624 35.798778 35.849047 35.898401 35.946774 35.994139 36.040433 36.085630 36.129670 36.172529 36.214153 36.254519 36.293576 36.331306 36.367662 36.402629 36.436164 36.468253 36.498862 36.527977 36.555569 36.581628 36.606126 36.629059 36.650402 36.670151 36.688287 36.704808 36.719697 36.732954 36.744567 36.754534 36.762848 36.769507 36.774506 36.777845 36.779522 36.779536 36.777888 36.774577 36.769608 36.762980 36.754699 36.744767 36.733190 36.719973 36.705125 36.688650 36.670562 36.650866 36.629581 36.606711 36.582279 36.556294 36.528781 36.499750 36.469234 36.437243 36.403815 36.368964 36.332731 36.295134 36.256218 36.216004 36.174543 36.131857 36.088002 36.043002 35.996918 35.949775 35.901637 35.852534 35.802529 35.751654 35.699977 35.647527 35.594374 35.540548 35.486120 35.431119 35.375614 35.319635 35.263249 35.206484 35.149405 35.092038 35.034446 34.976652 34.918715 34.860655 34.802529 34.744352 34.686177 34.628016 34.569917 34.511889 34.453974 34.396178 34.338540 34.281059 34.223771 34.166672 34.109791 34.053122 33.996690 33.940485 33.884526 33.828801 33.773326 33.718085 33.663088 33.608320 33.553786 33.499468 33.445367 33.391465 33.337758 33.284228 33.230867 33.177656 33.124585 33.071634 33.018791 32.966035 32.913352 32.860723 32.808130 32.755556
33.133333 33.214635 33.295962 33.377340 33.458791 33.540345 33.622019 33.703843 33.785832 33.868016 33.950405 34.033029 34.115893 34.199027 34.282430 34.366130 34.450122 34.534431 34.619045 34.703987 34.789239 34.874821 34.960707 35.046914 35.133409 35.220204 35.307260 35.394584 35.482129 35.569897 35.657834 35.745936 35.834142 35.922444 36.010773 36.099114 36.187392 36.275588 36.363619 36.451461 36.539025 36.626282 36.713140 36.799563 36.885454 36.970776 37.055429 37.139369 37.222497 37.304766 37.386075 37.466377 37.545570 37.623608 37.700389 37.775868 37.849946 37.922578 37.993669 38.063178 38.131013 38.197136 38.261462 38.323955 38.384536 38.443174 38.499798 38.554378 38.606852 38.657195 38.705350 38.751297 38.794987 38.836404 38.875505 38.912278 38.946686 38.978721 39.008352 39.035573 39.060359 39.082706 39.102595 39.120023 39.134976 39.147453 39.157443 39.164945 39.169955 39.172471 39.172492 39.170018 39.165053 39.157595 39.147652 39.135224 39.120323 39.102949 39.083119 39.060835 39.036117 39.008969 38.979418 38.947470 38.913155 38.876483 38.837491 38.796192 38.752630 38.706821 38.658815 38.608632 38.556331 38.501935 38.445511 38.387086 38.326732 38.264483 38.200417 38.134571 38.067031 37.997837 37.927079 37.854800 37.781098 37.706016 37.629654 37.552059 37.473334 37.393524 37.312734 37.231010 37.148456 37.065118 36.981097 36.896437 36.811239 36.725541 36.639442 36.552976 36.466238 36.379257 36.292124 36.204862 36.117556 36.030224 35.942945 35.855731 35.768654 35.681721 35.594995 35.508480 35.422231 35.336245 35.250571 35.165201 35.080175 34.995482 34.911154 34.827174 34.743569 34.660319 34.577441 34.494913 34.412747 34.330915 34.249425 34.168246 34.087381 34.006796 33.926489 33.846426 33.766598 33.686972 33.607535 33.528252 33.449107 33.370068 33.291111 33.212208 33.133333
33.511111 33.619540 33.728003 33.836533 33.945165 34.053928 34.162860 34.271983 34.381339 34.490942 34.600835 34.711027 34.821557 34.932431 35.043684 35.155316 35.267360 35.379806 35.492686 35.605980 35.719717 35.833868 35.948457 36.063446 36.178854 36.294633 36.410796 36.527286 36.644107 36.761195 36.878547 36.996086 37.113805 37.231617 37.349506 37.467376 37.585204 37.702886 37.820391 37.937605 38.054493 38.170933 38.286882 38.402214 38.516879 38.630745 38.743759 38.855785 38.966766 39.076564 39.185119 39.292293 39.398024 39.502176 39.604688 39.705424 39.804324 39.901259 39.996171 40.088935 40.179497 40.267740 40.353614 40.437009 40.517881 40.596128 40.671712 40.744541 40.814581 40.881751 40.946023 41.007325 41.065634 41.120888 41.173069 41.222125 41.268041 41.310772 41.350311 41.386620 41.419692 41.449498 41.476035 41.499280 41.519230 41.535870 41.549198 41.559204 41.565887 41.569243 41.569271 41.565973 41.559347 41.549401 41.536135 41.519561 41.499679 41.476508 41.450049 41.420327 41.387346 41.351135 41.311702 41.269086 41.223294 41.174373 41.122338 41.067242 41.009103 40.947985 40.883911 40.816955 40.747144 40.674563 40.599244 40.521281 40.440713 40.357643 40.272116 40.184243 40.094074 40.001728 39.907261 39.810798 39.712397 39.612190 39.510238 39.406677 39.301568 39.195051 39.087188 38.978118 38.867901 38.756678 38.644506 38.531523 38.417782 38.303418 38.188479 38.073095 37.957308 37.841242 37.724934 37.608498 37.491965 37.375442 37.258951 37.142591 37.026377 36.910397 36.794660 36.679244 36.564149 36.449444 36.335124 36.221246 36.107797 35.994826 35.882314 35.770301 35.658760 35.547722 35.437158 35.327087 35.217477 35.108338 34.999635 34.891370 34.783504 34.676034 34.568917 34.462143 34.355669 34.249479 34.143530 34.037798 33.932241 33.826832 33.721530 33.616303 33.511111
33.888889 34.024468 34.160089 34.295796 34.431627 34.567630 34.703836 34.840294 34.977030 35.114094 35.251504 35.389309 35.527519 35.666183 35.805302 35.944921 36.085032 36.225678 36.366840 36.508556 36.650796 36.793593 36.936906 37.080761 37.225106 37.369959 37.515257 37.661010 37.807141 37.953654 38.100457 38.247546 38.394819 38.542259 38.689754 38.837278 38.984707 39.132006 39.279040 39.425764 39.572034 39.717798 39.862901 40.007285 40.150789 40.293345 40.434788 40.575046 40.713949 40.851422 40.987291 41.121481 41.253818 41.384224 41.512531 41.638659 41.762444 41.883812 42.002601 42.118743 42.232085 42.342561 42.450029 42.554430 42.655633 42.753583 42.848162 42.939323 43.026959 43.111031 43.191443 43.268163 43.341109 43.410255 43.475530 43.536913 43.594346 43.647813 43.697265 43.742692 43.784054 43.821343 43.854530 43.883609 43.908557 43.929372 43.946039 43.958555 43.966912 43.971110 43.971145 43.967019 43.958735 43.946293 43.929704 43.908970 43.884108 43.855121 43.822033 43.784848 43.743600 43.698295 43.648976 43.595652 43.538376 43.477160 43.412068 43.343119 43.270386 43.193896 43.113732 43.029927 42.942579 42.851726 42.757479 42.659883 42.559061 42.455066 42.348031 42.238017 42.125167 42.009549 41.891315 41.770537 41.647376 41.521909 41.394302 41.264633 41.133076 40.999707 40.864702 40.728139 40.590192 40.450937 40.310548 40.169094 40.026747 39.883571 39.739731 39.595286 39.450394 39.305104 39.159567 39.013825 38.868016 38.722175 38.576429 38.430802 38.285411 38.140272 37.995487 37.851063 37.707092 37.563570 37.420576 37.278098 37.136203 36.994871 36.854156 36.714031 36.574537 36.435642 36.297376 36.159700 36.022632 35.886129 35.750201 35.614798 35.479921 35.345518 35.211580 35.078055 34.944924 34.812133 34.679658 34.547446 34.415463 34.283658 34.151993 34.020417 33.888889
34.266667 34.429423 34.592232 34.755142 34.918207 35.081471 35.244991 35.408803 35.572966 35.737508 35.902487 36.067922 36.233871 36.400343 36.567393 36.735018 36.903271 37.072136 37.241662 37.411821 37.582655 37.754122 37.926258 38.099008 38.272398 38.446359 38.620909 38.795963 38.971530 39.147510 39.323900 39.500588 39.677558 39.854682 40.031935 40.209175 40.386364 40.563347 40.740076 40.916382 41.092207 41.267372 41.441807 41.615325 41.787848 41.959178 42.129234 42.297810 42.464818 42.630051 42.793417 42.954708 43.113829 43.270573 43.424847 43.576448 43.725284 43.871159 44.013984 44.153572 44.289840 44.422611 44.551811 44.677273 44.798930 44.916631 45.030316 45.139849 45.245179 45.346184 45.442823 45.534987 45.622644 45.705700 45.784131 45.857856 45.926857 45.991068 46.050476 46.105027 46.154711 46.199487 46.239348 46.274262 46.304227 46.329218 46.349235 46.364262 46.374298 46.379338 46.379380 46.374427 46.364477 46.349540 46.329617 46.304723 46.274862 46.240058 46.200314 46.155665 46.106117 46.051714 45.992465 45.928426 45.859611 45.786088 45.707876 45.625057 45.537655 45.445767 45.349426 45.248742 45.143757 45.034594 44.921306 44.804032 44.682830 44.557856 44.429176 44.296960 44.161281 44.022321 43.880163 43.734996 43.586910 43.436102 43.282667 43.126809 42.968622 42.808317 42.645988 42.481847 42.315985 42.148614 41.979822 41.809815 41.638678 41.466612 41.293692 41.120111 40.945938 40.771355 40.596420 40.421307 40.246060 40.070842 39.895686 39.720740 39.546027 39.371681 39.197712 39.024240 38.851264 38.678888 38.507102 38.335994 38.165543 37.995823 37.826804 37.658545 37.491007 37.324235 37.158184 36.992884 36.828284 36.664402 36.501180 36.338625 36.176676 36.015327 35.854515 35.694224 35.534388 35.374982 35.215941 35.057230 34.898785 34.740564 34.582505 34.424559 34.266667
34.644444 34.834413 35.024440 35.214590 35.404916 35.595486 35.786344 35.977561 36.169173 36.361251 36.553820 36.746952 36.940660 37.135014 37.330015 37.525730 37.722146 37.919324 38.117238 38.315943 38.515398 38.715649 38.916640 39.118408 39.320880 39.524083 39.727927 39.932428 40.137479 40.343083 40.549116 40.755569 40.962299 41.169284 41.376365 41.583507 41.790534 41.997397 42.203905 42.409997 42.615468 42.820244 43.024107 43.226974 43.428616 43.628940 43.827711 44.024825 44.220043 44.413257 44.604224 44.792832 44.978840 45.162134 45.342475 45.519752 45.693732 45.864308 46.031256 46.194473 46.353748 46.508985 46.659986 46.806665 46.948838 47.086431 47.219275 47.347306 47.470372 47.588422 47.701320 47.809024 47.911417 48.008466 48.100070 48.186206 48.266788 48.341799 48.411170 48.474889 48.532900 48.585197 48.631734 48.672510 48.707491 48.736676 48.760043 48.777590 48.789306 48.795191 48.795241 48.789456 48.777842 48.760399 48.737141 48.708071 48.673210 48.632563 48.586163 48.534014 48.476162 48.412614 48.343429 48.268619 48.188255 48.102355 48.011006 47.914233 47.812138 47.704756 47.592205 47.474530 47.351866 47.224267 47.091887 46.954791 46.813150 46.667039 46.516646 46.362055 46.203470 46.040984 45.874815 45.705064 45.531958 45.355606 45.176244 44.993983 44.809067 44.621608 44.431852 44.239911 44.046031 43.850321 43.653026 43.454246 43.254221 43.053046 42.850952 42.648023 42.444480 42.240398 42.035984 41.831301 41.626542 41.421757 41.217124 41.012679 40.808584 40.604862 40.401656 40.198976 39.996951 39.795574 39.594956 39.395081 39.196040 38.997806 38.800455 38.603946 38.408339 38.213585 38.019728 37.826710 37.634559 37.443212 37.252681 37.062897 36.873860 36.685498 36.497795 36.310678 36.124120 35.938046 35.752419 35.567164 35.382235 35.197558 35.013080 34.828729 34.644444
35.022222 35.239439 35.456726 35.674149 35.891785 36.109688 36.327940 36.546588 36.765712 36.985349 37.205580 37.426431 37.647980 37.870239 38.093284 38.317111 38.541793 38.767310 38.993726 39.221007 39.449208 39.678277 39.908260 40.139085 40.370789 40.603280 40.836581 41.070581 41.305292 41.540580 41.776444 42.012730 42.249421 42.486345 42.723467 42.960597 43.197685 43.434522 43.671044 43.907024 44.142382 44.376878 44.610419 44.842750 45.073767 45.303204 45.530947 45.756722 45.980408 46.201726 46.420549 46.636597 46.849742 47.059704 47.266355 47.469423 47.668781 47.864166 48.055457 48.242402 48.424889 48.602680 48.775673 48.943647 49.106510 49.264061 49.416219 49.562802 49.703744 49.838881 49.968159 50.091436 50.208669 50.319734 50.424599 50.523161 50.615396 50.701218 50.780610 50.853503 50.919887 50.979707 51.032956 51.079593 51.119616 51.152993 51.179726 51.199794 51.213197 51.219927 51.219984 51.213368 51.200081 51.180134 51.153526 51.120279 51.080394 51.033904 50.980811 50.921161 50.854959 50.782262 50.703082 50.617490 50.525504 50.427212 50.322638 50.211888 50.094997 49.972088 49.843207 49.708497 49.568015 49.421926 49.270298 49.113316 48.951060 48.783736 48.611436 48.434385 48.252684 48.066576 47.876174 47.681733 47.483374 47.281364 47.075831 46.867050 46.655152 46.440418 46.222977 46.003115 45.780958 45.556789 45.330730 45.103059 44.873890 44.643494 44.411973 44.179589 43.946433 43.712751 43.478623 43.244278 43.009781 42.775346 42.541021 42.307002 42.073322 41.840157 41.607524 41.375579 41.144325 40.913897 40.684283 40.455598 40.227816 40.001032 39.775208 39.550419 39.326616 39.103854 38.882075 38.661317 38.441510 38.222678 38.004744 37.787713 37.571505 37.356110 37.141443 36.927481 36.714136 36.501373 36.289105 36.077283 35.865821 35.654662 35.443722 35.232936 35.022222
35.400000 35.644508 35.889094 36.133841 36.378819 36.624115 36.869790 37.115935 37.362598 37.609871 37.857790 38.106447 38.355861 38.606123 38.857237 39.109287 39.362262 39.616240 39.871190 40.127181 40.384165 40.642200 40.901217 41.161262 41.422246 41.684201 41.947015 42.210707 42.475142 42.740322 43.006090 43.272432 43.539167 43.806265 44.073521 44.340889 44.608142 44.875215 45.141863 45.408003 45.673371 45.937870 46.201217 46.463302 46.723828 46.982672 47.239527 47.494259 47.746554 47.996271 48.243093 48.486872 48.727293 48.964208 49.197304 49.426436 49.651300 49.871754 50.087507 50.298425 50.504232 50.704805 50.899886 51.089363 51.272998 51.450695 51.622236 51.787540 51.946412 52.098784 52.244485 52.383462 52.515566 52.640755 52.758904 52.869982 52.973883 53.070588 53.160010 53.242135 53.316895 53.384282 53.444243 53.496775 53.541838 53.579431 53.609529 53.632130 53.647219 53.654798 53.654863 53.647412 53.632454 53.609988 53.580031 53.542584 53.497677 53.445310 53.385526 53.318329 53.243774 53.161869 53.072687 52.976240 52.872619 52.761844 52.644024 52.519189 52.387469 52.248906 52.103652 51.951760 51.793406 51.628658 51.457713 51.280656 51.097704 50.908958 50.714658 50.514916 50.309995 50.100017 49.885265 49.665871 49.442132 49.214190 48.982352 48.746766 48.507748 48.265445 48.020181 47.772100 47.521526 47.268600 47.013640 46.756782 46.498335 46.238426 45.977353 45.715229 45.452340 45.188784 44.924830 44.660559 44.396223 44.131886 43.867779 43.603947 43.340602 43.077770 42.815639 42.554220 42.293676 42.034002 41.775339 41.517664 41.261095 41.005596 40.751262 40.498042 40.246010 39.995103 39.745375 39.496751 39.249266 39.002837 38.757478 38.513100 38.269701 38.027185 37.785533 37.544648 37.304495 37.064976 36.826041 36.587593 36.349571 36.111879 35.874446 35.637179 35.400000
35.777778 36.049623 36.321559 36.593669 36.866048 37.138772 37.411939 37.685612 37.959893 38.234830 38.510527 38.787017 39.064399 39.342691 39.621989 39.902291 40.183689 40.466159 40.749785 41.034525 41.320449 41.607493 41.895717 42.185033 42.475486 42.766965 43.059498 43.352950 43.647332 43.942481 44.238394 44.534880 44.831916 45.129287 45.426951 45.724667 46.022372 46.319803 46.616878 46.913312 47.209003 47.503646 47.797123 48.089111 48.379476 48.667883 48.954184 49.238034 49.519273 49.797551 50.072703 50.344374 50.612397 50.876421 51.136278 51.391624 51.642295 51.887959 52.128460 52.363480 52.592874 52.816344 53.033758 53.244839 53.449470 53.647398 53.838522 54.022616 54.199594 54.369256 54.531533 54.686251 54.833356 54.972699 55.104239 55.227853 55.343511 55.451110 55.550632 55.641994 55.725186 55.800142 55.866858 55.925283 55.975416 56.017223 56.050704 56.075837 56.092622 56.101050 56.101122 56.092837 56.076197 56.051215 56.017890 55.976247 55.926285 55.868045 55.801526 55.726781 55.643816 55.552700 55.453443 55.346132 55.230784 55.107509 54.976332 54.837384 54.690705 54.536448 54.374666 54.205539 54.029135 53.845660 53.655198 53.457980 53.254109 53.043840 52.827293 52.604747 52.376336 52.142362 51.902972 51.658487 51.409064 51.155041 50.896582 50.634035 50.367569 50.097540 49.824117 49.547659 49.268330 48.986489 48.702292 48.416093 48.128037 47.838467 47.547516 47.255513 46.962576 46.669015 46.374931 46.080615 45.786150 45.491803 45.197637 44.903897 44.610626 44.318042 44.026170 43.735202 43.445142 43.156159 42.868237 42.581518 42.295969 42.011709 41.728688 41.446998 41.166576 40.887492 40.609669 40.333153 40.057857 39.783807 39.510906 39.239159 38.968463 38.698805 38.430076 38.162246 37.895204 37.628903 37.363232 37.098130 36.833487 36.569230 36.305251 36.041468 35.777778
36.155556 36.454790 36.754121 37.053654 37.353475 37.653695 37.954389 38.255670 38.557601 38.860295 39.163799 39.468227 39.773606 40.080047 40.387560 40.696248 41.006100 41.317213 41.629553 41.943205 42.258112 42.574348 42.891830 43.210617 43.530599 43.851819 44.174141 44.497589 44.821999 45.147374 45.473523 45.800429 46.127870 46.455809 46.783997 47.112373 47.440660 47.768778 48.096423 48.423492 48.749659 49.074801 49.398572 49.720827 50.041205 50.359545 50.675471 50.988811 51.299176 51.606387 51.910051 52.209981 52.505786 52.797277 53.084068 53.365973 53.642616 53.913818 54.179219 54.438649 54.691768 54.938421 55.178290 55.411235 55.636965 55.855359 56.066153 56.269244 56.464398 56.651530 56.830436 57.001050 57.163195 57.316821 57.461779 57.598035 57.725465 57.844045 57.953676 58.054344 58.145969 58.228547 58.302014 58.366371 58.421572 58.467619 58.504481 58.532160 58.550640 58.559921 58.560000 58.550876 58.532557 58.505043 58.468353 58.422486 58.367475 58.303321 58.230070 58.147725 58.056350 57.955952 57.846614 57.728349 57.601262 57.465377 57.320820 57.167627 57.005952 56.835844 56.657484 56.470939 56.276418 56.074006 55.863941 55.646328 55.421434 55.189381 54.950466 54.704829 54.452793 54.194512 53.930334 53.660428 53.385159 53.104708 52.819456 52.529588 52.235497 51.937373 51.635611 51.330400 51.022138 50.711005 50.397396 50.081482 49.763647 49.444049 49.123059 48.800820 48.477683 48.153772 47.829419 47.504728 47.180006 46.855335 46.530997 46.207051 45.883753 45.561140 45.239437 44.918661 44.599009 44.280475 43.963229 43.647244 43.332662 43.019436 42.707682 42.397336 42.088487 41.781056 41.475106 41.170545 40.867411 40.565603 40.265136 39.965898 39.667883 39.370974 39.075146 38.780276 38.486320 38.193155 37.900720 37.608893 37.317598 37.026714 36.736153 36.445800 36.155556
36.533333 36.860008 37.186795 37.513795 37.841127 38.168882 38.497184 38.826108 39.155781 39.486264 39.817682 40.150078 40.483575 40.818196 41.154060 41.491167 41.829627 42.169420 42.510644 42.853252 43.197332 43.542810 43.889758 44.238074 44.587814 44.938846 45.291206 45.644732 45.999439 46.355134 46.711811 47.069244 47.427403 47.786032 48.145076 48.504249 48.863470 49.222424 49.581008 49.938877 50.295905 50.651724 51.006184 51.358896 51.709690 52.058161 52.404123 52.747154 53.087058 53.423407 53.755992 54.084384 54.408372 54.727528 55.041642 55.350295 55.653283 55.950200 56.240853 56.524855 56.802027 57.072007 57.334631 57.589566 57.836668 58.075633 58.306338 58.528512 58.742053 58.946723 59.142440 59.328998 59.506337 59.674280 59.832784 59.981703 60.121008 60.250580 60.370402 60.480378 60.580501 60.670698 60.750965 60.821250 60.881552 60.931834 60.972098 61.002321 61.022505 61.032639 61.032725 61.022763 61.002754 60.972712 60.932635 60.882550 60.822455 60.752392 60.672360 60.582418 60.482567 60.372886 60.253383 60.124157 59.985225 59.836711 59.678644 59.511175 59.334347 59.148341 58.953219 58.749191 58.536339 58.314907 58.084996 57.846883 57.600693 57.346733 57.085148 56.816277 56.540285 56.257538 55.968218 55.672715 55.371226 55.064160 54.751723 54.434339 54.112219 53.785798 53.455286 53.121121 52.783510 52.442887 52.099451 51.753629 51.405606 51.055796 50.704367 50.351717 49.997993 49.643571 49.288578 48.933363 48.578029 48.222901 47.868055 47.513785 47.160145 46.807397 46.455570 46.104895 45.755377 45.407216 45.060393 44.715077 44.371227 44.028983 43.688284 43.349238 43.011767 42.675953 42.341701 42.009064 41.677936 41.348343 41.020168 40.693415 40.367957 40.043775 39.720737 39.398802 39.077837 38.757782 38.438501 38.119918 37.801899 37.484352 37.167149 36.850183 36.533333
36.911111 37.265285 37.619577 37.974113 38.328999 38.684370 39.040316 39.396976 39.754426 40.112803 40.472167 40.832653 41.194299 41.557239 41.921486 42.287168 42.654273 43.022919 43.393069 43.764827 44.138129 44.513063 44.889536 45.267618 45.647184 46.028285 46.410764 46.794649 47.179749 47.566069 47.953383 48.341671 48.730674 49.120343 49.510386 49.900727 50.291041 50.681225 51.070922 51.460002 51.848080 52.235002 52.620354 53.003961 53.385387 53.764435 54.140654 54.513830 54.883498 55.249435 55.611169 55.968468 56.320863 56.668118 57.009771 57.345591 57.675126 57.998156 58.314249 58.623196 58.924591 59.218241 59.503771 59.781008 60.049608 60.309424 60.560145 60.801648 61.033659 61.256078 61.468668 61.671352 61.863927 62.046338 62.218414 62.380120 62.531314 62.671975 62.801992 62.921354 63.029972 63.127846 63.214908 63.291161 63.356558 63.411103 63.454765 63.487547 63.509432 63.520424 63.520517 63.509712 63.488017 63.455430 63.411973 63.357640 63.292469 63.216455 63.129649 63.032050 62.923727 62.804685 62.675014 62.534726 62.383937 62.222670 62.051068 61.869169 61.677149 61.475062 61.263118 61.041393 60.810130 60.569429 60.319569 60.060676 59.793064 59.516881 59.232479 58.940028 58.639913 58.332325 58.017676 57.696178 57.368266 57.034164 56.694329 56.348992 55.998623 55.643457 55.283971 54.920398 54.553214 54.182646 53.809165 53.432984 53.054563 52.674098 52.292031 51.908540 51.524043 51.138695 50.752890 50.366755 49.980656 49.594694 49.209202 48.824253 48.440149 48.056935 47.674878 47.293996 46.914522 46.536448 46.159972 45.785062 45.411883 45.040379 44.670682 44.302717 43.936583 43.572186 43.209597 42.848706 42.489553 42.132016 41.776109 41.421699 41.068773 40.717192 40.366921 40.017813 39.669813 39.322772 38.976615 38.631195 38.286418 37.942139 37.598252 37.254616 36.911111
37.288889 37.670618 38.052481 38.434601 38.817120 39.200146 39.583829 39.968260 40.353591 40.739896 41.127326 41.515934 41.905868 42.297158 42.689945 43.084236 43.480162 43.877701 44.276974 44.677929 45.080670 45.485117 45.891355 46.299270 46.708927 47.120178 47.533066 47.947404 48.363212 48.780266 49.198559 49.617830 50.038041 50.458897 50.880328 51.302003 51.723822 52.145419 52.566664 52.987156 53.406739 53.824979 54.241695 54.656426 55.068965 55.478831 55.885797 56.289365 56.689291 57.085067 57.476439 57.862895 58.244176 58.619774 58.989431 59.352650 59.709179 60.058539 60.400492 60.734582 61.060588 61.378086 61.686876 61.986567 62.276986 62.557779 62.828799 63.089732 63.340458 63.580704 63.810377 64.029240 64.237228 64.434141 64.619934 64.794444 64.957644 65.109401 65.249704 65.378448 65.495631 65.601174 65.695082 65.777295 65.847822 65.906622 65.953702 65.989038 66.012635 66.024482 66.024582 66.012937 65.989544 65.954420 65.907558 65.848989 65.778704 65.696749 65.603117 65.497870 65.381005 65.252606 65.112675 64.961321 64.798557 64.624519 64.439236 64.242875 64.035484 63.817265 63.588286 63.348789 63.098866 62.838798 62.568705 62.288906 61.999550 61.700995 61.393418 61.077214 60.752583 60.419958 60.079559 59.731850 59.377068 59.015700 58.647999 58.274468 57.895366 57.511209 57.122256 56.729027 56.331776 55.931018 55.526998 55.120222 54.710916 54.299570 53.886391 53.471846 53.056119 52.639649 52.222592 51.805359 51.388076 50.971121 50.554588 50.138820 49.723882 49.310079 48.897447 48.486253 48.076503 47.668427 47.262003 46.857426 46.454646 46.053822 45.654881 45.257947 44.862926 44.469907 44.078780 43.689601 43.302244 42.916735 42.532935 42.150842 41.770308 41.391305 41.013676 40.637370 40.262227 39.888174 39.515048 39.142758 38.771144 38.400095 38.029457 37.659104 37.288889
37.666667 38.076014 38.485502 38.895280 39.305475 39.716246 40.127703 40.540008 40.953254 41.367605 41.783133 42.199999 42.618252 43.038047 43.459408 43.882484 44.307268 44.733898 45.162337 45.592708 46.024943 46.459145 46.895213 47.333230 47.773056 48.214752 48.658140 49.103255 49.549880 49.998020 50.447418 50.898050 51.349617 51.802064 52.255053 52.708492 53.162006 53.615472 54.068474 54.520857 54.972172 55.422231 55.870554 56.316925 56.760836 57.202048 57.640030 58.074522 58.504980 58.931128 59.352414 59.768554 60.178994 60.583449 60.981373 61.372485 61.756255 62.132414 62.500456 62.860127 63.210951 63.552698 63.884928 64.207438 64.519827 64.821920 65.113362 65.394008 65.663544 65.921859 66.168682 66.403929 66.627373 66.838957 67.038491 67.225941 67.401155 67.564115 67.714702 67.852910 67.978649 68.091922 68.192662 68.280879 68.356523 68.419605 68.470095 68.508000 68.533304 68.546012 68.546119 68.533627 68.508544 68.470864 68.420610 68.357773 68.282389 68.194449 68.094005 67.981048 67.855652 67.717812 67.567625 67.405096 67.230349 67.043404 66.844417 66.633425 66.410620 66.176062 65.929983 65.672469 65.403795 65.124074 64.833627 64.532597 64.221348 63.900055 63.569124 63.228761 62.879413 62.521309 62.154935 61.780542 61.398645 61.009514 60.613687 60.211445 59.803341 59.389663 58.970971 58.547549 58.119958 57.688475 57.253651 56.815747 56.375303 55.932556 55.488025 55.041923 54.594741 54.146665 53.698154 53.249361 52.800710 52.352324 51.904588 51.457589 51.011676 50.566901 50.123572 49.681709 49.241580 48.803174 48.366717 47.932171 47.499720 47.069301 46.641060 46.214907 45.790953 45.369088 44.949386 44.531718 44.116125 43.702465 43.290746 42.880812 42.472645 42.066080 41.661070 41.257445 40.855133 40.453962 40.053839 39.654590 39.256104 38.858209 38.460777 38.063644 37.666667