# vtk DataFile Version 3.0
Steady-state temperature (Jacobi)
ASCII
DATASET STRUCTURED_POINTS
DIMENSIONS 181 181 1
ORIGIN 0.0 0.0 0.0
SPACING 0.05 0.05 1.0
POINT_DATA 32761
SCALARS Temperature float 1
LOOKUP_TABLE default
32.000000 32.000000 32.000000 32.000000 32.000000 32.000000 32.000000 32.000000
32.000000 32.000000 32.000000 32.000000 32.000000 32.000000 32.000000 32.000000
32.000000 32.000000 32.000000 32.000000 32.000000 32.000000 32.000000 32.000000
32.000000 32.000000 32.000000 32.000000 32.000000 32.000000 32.000000 32.000000
32.000000 32.000000 32.000000 32.000000 32.000000 32.000000 32.000000 32.000000
32.000000 32.000000 32.000000 32.000000 32.000000 32.000000 32.000000 32.000000
32.000000 32.000000 32.000000 32.000000 32.000000 32.000000 32.000000 32.000000
32.000000 32.000000 32.000000 32.000000 32.000000 32.000000 32.000000 32.000000
32.000000 32.000000 32.000000 32.000000 32.000000 32.000000 32.000000 32.000000
32.000000 32.000000 32.000000 32.000000 32.000000 32.000000 32.000000 32.000000
32.000000 32.000000 32.000000 32.000000 32.000000 32.000000 32.000000 32.000000
32.000000 32.000000 32.000000 32.000000 32.000000 32.000000 32.000000 32.000000
32.000000 32.000000 32.000000 32.000000 32.000000 32.000000 32.000000 32.000000
32.000000 32.000000 32.000000 32.000000 32.000000 32.000000 32.000000 32.000000
32.000000 32.000000 32.000000 32.000000 32.000000 32.000000 32.000000 32.000000
32.000000 32.000000 32.000000 32.000000 32.000000 32.000000 32.000000 32.000000
32.000000 32.000000 32.000000 32.000000 32.000000 32.000000 32.000000 32.000000
32.000000 32.000000 32.000000 32.000000 32.000000 32.000000 32.000000 32.000000
32.000000 32.000000 32.000000 32.000000 32.000000 32.000000 32.000000 32.000000
32.000000 32.000000 32.000000 32.000000 32.000000 32.000000 32.000000 32.000000
32.000000 32.000000 32.000000 32.000000 32.000000 32.000000 32.000000 32.000000
32.000000 32.000000 32.000000 32.000000 32.000000 32.000000 32.000000 32.000000
32.000000 32.000000 32.000000 32.000000 32.000000
32.377778 32.407364 32.436955 32.466557 32.496175 32.525814 32.555479 32.585175
32.614905 32.644676 32.674490 32.704352 32.734263 32.764228 32.794247 32.824324
32.854458 32.884653 32.914904 32.945216 32.975583 33.006006 33.036479 33.067003
33.097569 33.128176 33.158813 33.189479 33.220160 33.250853 33.281544 33.312226
33.342884 33.373510 33.404086 33.434603 33.465040 33.495387 33.525623 33.555734
33.585698 33.615501 33.645117 33.674532 33.703720 33.732664 33.761339 33.789726
33.817798 33.845539 33.872919 33.899921 33.926518 33.952692 33.978415 34.003670
34.028431 34.052680 34.076392 34.099552 34.122135 34.144125 34.165502 34.186251
34.206351 34.225791 34.244551 34.262622 34.279985 34.296632 34.312549 34.327727
34.342155 34.355824 34.368726 34.380854 34.392200 34.402760 34.412527 34.421497
34.429665 34.437029 34.443583 34.449328 34.454259 34.458375 34.461675 34.464157
34.465821 34.466667 34.466693 34.465900 34.464289 34.461860 34.458615 34.454553
34.449679 34.443992 34.437497 34.430194 34.422089 34.413185 34.403486 34.392996
34.381724 34.369672 34.356850 34.343264 34.328924 34.313837 34.298016 34.281468
34.264209 34.246248 34.227602 34.208283 34.188308 34.167690 34.146450 34.124603
34.102170 34.079167 34.055618 34.031539 34.006956 33.981886 33.956356 33.930384
33.903996 33.877211 33.850057 33.822552 33.794723 33.766589 33.738178 33.709505
33.680599 33.651476 33.622162 33.592672 33.563032 33.533254 33.503363 33.473372
33.443301 33.413162 33.382976 33.352751 33.322506 33.292248 33.261994 33.231749
33.201527 33.171334 33.141181 33.111071 33.081014 33.051011 33.021071 32.991193
32.961384 32.931642 32.901971 32.872370 32.842841 32.813380 32.783989 32.754662
32.725402 32.696200 32.667058 32.637968 32.608928 32.579933 32.550978 32.522057
32.493166 32.464298 32.435448 32.406610 32.377778
32.755556 32.814730 32.873916 32.933123 32.992362 33.051643 33.110977 33.170372
33.229839 33.289383 33.349017 33.408743 33.468572 33.528505 33.588552 33.648710
33.708988 33.769381 33.829895 33.890523 33.951268 34.012121 34.073081 34.134135
34.195282 34.256503 34.317795 34.379135 34.440516 34.501912 34.563313 34.624689
34.686027 34.747291 34.808466 34.869513 34.930412 34.991121 35.051618 35.111857
35.171811 35.231433 35.290693 35.349541 35.407945 35.465853 35.523230 35.580024
35.636197 35.691697 35.746486 35.800510 35.853732 35.906098 35.957571 36.008099
36.057647 36.106162 36.153611 36.199946 36.245135 36.289131 36.331905 36.373416
36.413636 36.452526 36.490064 36.526214 36.560956 36.594259 36.626106 36.656469
36.685335 36.712679 36.738492 36.762753 36.785453 36.806575 36.826115 36.844057
36.860398 36.875127 36.888240 36.899730 36.909594 36.917828 36.924429 36.929394
36.932723 36.934413 36.934466 36.932880 36.929658 36.924799 36.918306 36.910183
36.900431 36.889057 36.876062 36.861456 36.845241 36.827430 36.808026 36.787044
36.764491 36.740383 36.714730 36.687553 36.658861 36.628680 36.597025 36.563921
36.529388 36.493457 36.456148 36.417497 36.377528 36.336280 36.293779 36.250070
36.205181 36.159159 36.112036 36.063862 36.014670 35.964513 35.913425 35.861461
35.808657 35.755069 35.700732 35.645703 35.590017 35.533730 35.476878 35.419515
35.361675 35.303411 35.244755 35.185758 35.126450 35.066879 35.007071 34.947073
34.886908 34.826617 34.766221 34.705759 34.645247 34.584720 34.524191 34.463691
34.403231 34.342836 34.282513 34.222285 34.162156 34.102144 34.042250 33.982488
33.922857 33.863369 33.804017 33.744810 33.685742 33.626817 33.568026 33.509371
33.450842 33.392438 33.334146 33.275964 33.217880 33.159887 33.101972 33.044128
32.986342 32.928604 32.870901 32.813222 32.755556
33.133333 33.222103 33.310889 33.399708 33.488575 33.577506 33.666514 33.755617
33.844825 33.934155 34.023613 34.113218 34.202970 34.292887 34.382967 34.473224
34.563653 34.654265 34.745051 34.836018 34.927153 35.018459 35.109919 35.201532
35.293274 35.385142 35.477104 35.569153 35.661253 35.753390 35.845523 35.937634
36.029675 36.121622 36.213422 36.305046 36.396436 36.487558 36.578347 36.668765
36.758743 36.848239 36.937178 37.025515 37.113172 37.200100 37.286218 37.371475
37.455788 37.539104 37.621340 37.702442 37.782327 37.860941 37.938201 38.014055
38.088424 38.161256 38.232475 38.302033 38.369857 38.435903 38.500103 38.562415
38.622779 38.681157 38.737494 38.791756 38.843894 38.893881 38.941672 38.987245
39.030561 39.071601 39.110334 39.146744 39.180804 39.212504 39.241821 39.268747
39.293264 39.315366 39.335040 39.352282 39.367081 39.379436 39.389339 39.396789
39.401783 39.404320 39.404399 39.402020 39.397184 39.389894 39.380153 39.367964
39.353333 39.336265 39.316769 39.294849 39.270522 39.243792 39.214679 39.183190
39.149350 39.113169 39.074676 39.033885 38.990831 38.945532 38.898027 38.848340
38.796515 38.742580 38.686587 38.628568 38.568581 38.506661 38.442873 38.377257
38.309882 38.240793 38.170064 38.097743 38.023908 37.948609 37.871928 37.793917
37.714660 37.634211 37.552654 37.470042 37.386461 37.301964 37.216634 37.130523
37.043712 36.956251 36.868218 36.779660 36.690651 36.601234 36.511479 36.421424
36.331135 36.240644 36.150013 36.059269 35.968467 35.877629 35.786805 35.696012
35.605294 35.514662 35.424153 35.333776 35.243561 35.153510 35.063650 34.973980
34.884517 34.795258 34.706217 34.617385 34.528771 34.440364 34.352167 34.264168
34.176366 34.088744 34.001300 33.914014 33.826880 33.739880 33.653001 33.566226
33.479541 33.392925 33.306365 33.219840 33.133333
33.511111 33.629485 33.747882 33.866321 33.984825 34.103414 34.222110 34.340929
34.459894 34.579016 34.698319 34.817809 34.937507 35.057417 35.177556 35.297921
35.418530 35.539373 35.660462 35.781783 35.903343 36.025122 36.147121 36.269313
36.391696 36.514232 36.636915 36.759700 36.882572 37.005481 37.128405 37.251285
37.374093 37.496760 37.619254 37.741498 37.863451 37.985030 38.106188 38.226834
38.346917 38.466338 38.585039 38.702919 38.819914 38.935917 39.050862 39.164640
39.277179 39.388370 39.498139 39.606376 39.713008 39.817924 39.921054 40.022288
40.121557 40.218756 40.313820 40.406648 40.497177 40.585315 40.671004 40.754158
40.834723 40.912622 40.987809 41.060213 41.129793 41.196487 41.260263 41.321064
41.378864 41.433615 41.485296 41.533868 41.579312 41.621597 41.660711 41.696626
41.729334 41.758813 41.785059 41.808055 41.827797 41.844274 41.857485 41.867421
41.874082 41.877465 41.877570 41.874397 41.867947 41.858224 41.845230 41.828973
41.809456 41.786690 41.760681 41.731445 41.698990 41.663336 41.624494 41.582490
41.537339 41.489073 41.437711 41.383293 41.325841 41.265405 41.202011 41.135715
41.066552 40.994586 40.919857 40.842437 40.762372 40.679743 40.594603 40.507038
40.417107 40.324905 40.230494 40.133977 40.035418 39.934925 39.832568 39.728455
39.622660 39.515293 39.406428 39.296178 39.184615 39.071850 38.957955 38.843041
38.727174 38.610463 38.492970 38.374799 38.256009 38.136698 38.016918 37.896761
37.776275 37.655544 37.534608 37.413545 37.292388 37.171207 37.050028 36.928912
36.807881 36.686986 36.566241 36.445692 36.325345 36.205237 36.085370 35.965774
35.846443 35.727401 35.608638 35.490169 35.371980 35.254081 35.136454 35.019102
34.902005 34.785160 34.668543 34.552148 34.435949 34.319935 34.204080 34.088367
33.972771 33.857272 33.741844 33.626466 33.511111
33.888889 34.036880 34.184897 34.332970 34.481124 34.629386 34.777780 34.926334
35.075066 35.224003 35.373160 35.522562 35.672217 35.822150 35.972361 36.122871
36.273674 36.424788 36.576198 36.727918 36.879925 37.032226 37.184790 37.337618
37.490669 37.643937 37.797374 37.950963 38.104647 38.258403 38.412161 38.565891
38.719514 38.872990 39.026231 39.179188 39.331762 39.483898 39.635488 39.786468
39.936721 40.086176 40.234710 40.382245 40.528652 40.673846 40.817694 40.960107
41.100949 41.240130 41.377509 41.512995 41.646450 41.777781 41.906852 42.033574
42.157813 42.279483 42.398455 42.514650 42.627945 42.738265 42.845497 42.949572
43.050388 43.147882 43.241960 43.332570 43.419627 43.503086 43.582874 43.658953
43.731260 43.799763 43.864411 43.925177 43.982019 44.034917 44.083837 44.128763
44.169668 44.206542 44.239363 44.268126 44.292813 44.313421 44.329940 44.342367
44.350697 44.354927 44.355058 44.351089 44.343024 44.330863 44.314614 44.294281
44.269874 44.241399 44.208873 44.172304 44.131714 44.087114 44.038533 43.985986
43.929511 43.869126 43.804877 43.736790 43.664919 43.589295 43.509983 43.427022
43.340487 43.250424 43.156917 43.060021 42.959832 42.856412 42.749865 42.640261
42.527715 42.412302 42.294146 42.173328 42.049977 41.924182 41.796075 41.665749
41.533340 41.398941 41.262693 41.124687 40.985065 40.843917 40.701383 40.557549
40.412554 40.266478 40.119456 39.971563 39.822925 39.673614 39.523748 39.373389
39.222649 39.071582 38.920290 38.768818 38.617259 38.465651 38.314075 38.162561
38.011179 37.859951 37.708939 37.558153 37.407647 37.257425 37.107528 36.957954
36.808736 36.659864 36.511362 36.363215 36.215439 36.068012 35.920943 35.774208
35.627806 35.481710 35.335913 35.190385 35.045114 34.900067 34.755226 34.610560
34.466045 34.321649 34.177345 34.033102 33.888889
34.266667 34.444288 34.621943 34.799663 34.977484 35.155433 35.333546 35.511847
35.690371 35.869137 36.048177 36.227505 36.407152 36.587123 36.767446 36.948117
37.129162 37.310567 37.492352 37.674494 37.857007 38.039859 38.223054 38.406550
38.590345 38.774384 38.958656 39.143095 39.327680 39.512333 39.697023 39.881661
40.066205 40.250554 40.434655 40.618395 40.801712 40.984481 41.166630 41.348025
41.528582 41.708159 41.886664 42.063945 42.239905 42.414384 42.587279 42.758425
42.927715 43.094982 43.260115 43.422946 43.583365 43.741205 43.896356 44.048655
44.197996 44.344220 44.487227 44.626867 44.763044 44.895617 45.024500 45.149562
45.270724 45.387868 45.500925 45.609789 45.714399 45.814663 45.910529 46.001918
46.088787 46.171068 46.248728 46.321709 46.389985 46.453511 46.512266 46.566213
46.615339 46.659614 46.699028 46.733561 46.763206 46.787948 46.807783 46.822702
46.832703 46.837781 46.837938 46.833173 46.823488 46.808888 46.789377 46.764964
46.735655 46.701467 46.662407 46.618497 46.569749 46.516192 46.457843 46.394739
46.326901 46.254378 46.177196 46.095414 46.009067 45.918224 45.822928 45.723263
45.619278 45.511070 45.398698 45.282272 45.161861 45.037585 44.909524 44.777810
44.642531 44.503829 44.361801 44.216599 44.068324 43.917136 43.763143 43.606509
43.447344 43.285818 43.122041 42.956185 42.788358 42.618731 42.447412 42.274567
42.100299 41.924770 41.748077 41.570376 41.391757 41.212365 41.032283 40.851648
40.670531 40.489060 40.307296 40.125354 39.943286 39.761196 39.579123 39.397161
39.215338 39.033734 38.852370 38.671312 38.490571 38.310202 38.130207 37.950630
37.771463 37.592739 37.414445 37.236602 37.059190 36.882221 36.705669 36.529537
36.353794 36.178436 36.003428 35.828758 35.654388 35.480298 35.306451 35.132822
34.959370 34.786066 34.612871 34.439751 34.266667
34.644444 34.851714 35.059023 35.266411 35.473913 35.681572 35.889419 36.097495
36.305825 36.514451 36.723391 36.932683 37.142338 37.352392 37.562845 37.773730
37.985038 38.196793 38.408978 38.621611 38.834661 39.048138 39.262001 39.476251
39.690831 39.905735 40.120892 40.336283 40.551826 40.767489 40.983176 41.198844
41.414381 41.629734 41.844776 42.059440 42.273587 42.487139 42.699943 42.911909
43.122873 43.332734 43.541318 43.748514 43.954139 44.158076 44.360132 44.560185
44.758040 44.953568 45.146572 45.336921 45.524419 45.708936 45.890277 46.068317
46.242865 46.413799 46.580939 46.744169 46.903319 47.058281 47.208896 47.355067
47.496648 47.633553 47.765651 47.892865 48.015081 48.132234 48.244222 48.350992
48.452458 48.548577 48.639275 48.724520 48.804251 48.878443 48.947048 49.010048
49.067403 49.119102 49.165116 49.205437 49.240043 49.268930 49.292083 49.309500
49.321173 49.327102 49.327285 49.321721 49.310415 49.293370 49.270593 49.242090
49.207875 49.167956 49.122355 49.071080 49.014164 48.951620 48.883488 48.809786
48.730567 48.645855 48.555714 48.460176 48.359319 48.253184 48.141862 48.025406
47.903920 47.777469 47.646171 47.510103 47.369398 47.224143 47.074487 46.920527
46.762425 46.600288 46.434291 46.264548 46.091243 45.914500 45.734509 45.551398
45.365364 45.176537 44.985116 44.791233 44.595086 44.396805 44.196586 43.994555
43.790904 43.585752 43.379284 43.171610 42.962907 42.753277 42.542886 42.331823
42.120243 41.908225 41.695911 41.483365 41.270717 41.058021 40.845389 40.632864
40.420545 40.208461 39.996697 39.785272 39.574255 39.363654 39.153526 38.943868
38.734724 38.526080 38.317969 38.110370 37.903303 37.696738 37.490687 37.285113
37.080016 36.875357 36.671126 36.467279 36.263799 36.060639 35.857775 35.655158
35.452758 35.250527 35.048427 34.846414 34.644444
35.022222 35.259159 35.496143 35.733215 35.970425 36.207810 36.445420 36.683286
36.921458 37.159960 37.398840 37.638114 37.877825 38.117982 38.358622 38.599743
38.841377 39.083511 39.326169 39.569324 39.812993 40.057136 40.301759 40.546807
40.792277 41.038098 41.284254 41.530659 41.777285 42.024029 42.270850 42.517628
42.764307 43.010752 43.256894 43.502581 43.747728 43.992170 44.235808 44.478461
44.720019 44.960288 45.199145 45.436385 45.671876 45.905402 46.136825 46.365921
46.592546 46.816472 47.037550 47.255553 47.470331 47.681657 47.889384 48.093291
48.293233 48.488998 48.680447 48.867380 49.049666 49.227117 49.399615 49.566985
49.729121 49.885866 50.037125 50.182758 50.322685 50.456781 50.584982 50.707178
50.823317 50.933308 51.037109 51.134643 51.225880 51.310758 51.389253 51.461317
51.526934 51.586066 51.638702 51.684815 51.724398 51.757432 51.783914 51.803830
51.817181 51.823960 51.824168 51.817806 51.804874 51.785381 51.759329 51.726732
51.687595 51.641940 51.589773 51.531127 51.466011 51.394466 51.316510 51.232193
51.141539 51.044613 50.941448 50.832121 50.716676 50.595206 50.467766 50.334465
50.195371 50.050610 49.900264 49.744476 49.583340 49.417017 49.245614 49.069307
48.888217 48.702535 48.512390 48.317987 48.119465 47.917040 47.710856 47.501136
47.288031 47.071768 46.852498 46.630451 46.405778 46.178707 45.949385 45.718036
45.484800 45.249897 45.013456 44.775688 44.536714 44.296731 44.055849 43.814253
43.572039 43.329378 43.086352 42.843116 42.599738 42.356357 42.113028 41.869872
41.626929 41.384305 41.142026 40.900181 40.658784 40.417908 40.177553 39.937778
39.698572 39.459978 39.221977 38.984597 38.747808 38.511628 38.276020 38.040987
37.806487 37.572513 37.339017 37.105981 36.873355 36.641113 36.409201 36.177586
35.946212 35.715040 35.484016 35.253094 35.022222
35.400000 35.666627 35.933304 36.200087 36.467022 36.734163 37.001553 37.269246
37.537277 37.805698 38.074536 38.343842 38.613630 38.883947 39.154798 39.426222
39.698212 39.970800 40.243965 40.517730 40.792059 41.066966 41.342397 41.618355
41.894770 42.171632 42.448853 42.726408 43.004193 43.282167 43.560207 43.838257
44.116175 44.393889 44.671238 44.948135 45.224400 45.499931 45.774531 46.048082
46.320371 46.591267 46.860542 47.128053 47.393561 47.656910 47.917854 48.176229
48.431781 48.684340 48.933651 49.179541 49.421753 49.660117 49.894380 50.124373
50.349853 50.570656 50.786549 50.997379 51.202925 51.403046 51.597537 51.786270
51.969059 52.145789 52.316293 52.480473 52.638180 52.789333 52.933801 53.071519
53.202375 53.326317 53.443253 53.553142 53.655908 53.751523 53.839925 53.921094
53.994982 54.061576 54.120841 54.172769 54.217332 54.254528 54.284340 54.306764
54.321792 54.329424 54.329658 54.322493 54.307935 54.285985 54.256656 54.219950
54.175887 54.124474 54.065737 53.999686 53.926361 53.845774 53.757978 53.662992
53.560881 53.451676 53.335454 53.212257 53.082181 52.945279 52.801665 52.651406
52.494636 52.331436 52.161959 51.986303 51.804639 51.617083 51.423823 51.224989
51.020788 50.811363 50.596938 50.377666 50.153785 49.925457 49.692930 49.456373
49.216042 48.972109 48.724833 48.474387 48.221031 47.964934 47.706353 47.445452
47.182482 46.917599 46.651043 46.382959 46.113578 45.843030 45.571532 45.299201
45.026237 44.752742 44.478900 44.204795 43.930593 43.656363 43.382252 43.108314
42.834674 42.561372 42.288515 42.016126 41.744295 41.473030 41.202403 40.932410
40.663105 40.394472 40.126549 39.859308 39.592775 39.326910 39.061725 38.797173
38.533253 38.269912 38.007136 37.744869 37.483084 37.221723 36.960750 36.700105
36.439745 36.179608 35.919644 35.659793 35.400000
35.777778 36.074116 36.370515 36.667028 36.963717 37.260634 37.557840 37.855378
38.153310 38.451670 38.750517 39.049875 39.349799 39.650301 39.951431 40.253188
40.555613 40.858690 41.162453 41.466869 41.771961 42.077680 42.384036 42.690962
42.998453 43.306423 43.614854 43.923639 44.232742 44.542037 44.851471 45.160896
45.470242 45.779339 46.088100 46.396335 46.703937 47.010696 47.316489 47.621088
47.924351 48.226033 48.525980 48.823930 49.119714 49.413062 49.703792 49.991623
50.276369 50.557742 50.835550 51.109505 51.379413 51.644989 51.906040 52.162288
52.413547 52.659547 52.900111 53.134985 53.364003 53.586926 53.803605 54.013819
54.217434 54.414252 54.604155 54.786968 54.962590 55.130869 55.291721 55.445015
55.590685 55.728621 55.858771 55.981045 56.095404 56.201777 56.300135 56.390423
56.472621 56.546686 56.612607 56.670353 56.719917 56.761276 56.794429 56.819362
56.836074 56.844558 56.844817 56.836850 56.820659 56.796252 56.763633 56.722816
56.673807 56.616631 56.551294 56.477832 56.396257 56.306616 56.208928 56.103254
55.989620 55.868105 55.738746 55.601638 55.456833 55.304444 55.144539 54.977254
54.802670 54.620946 54.432182 54.236557 54.034190 53.825283 53.609972 53.388478
53.160954 52.927641 52.688706 52.444408 52.194924 51.940526 51.681402 51.417835
51.150016 50.878235 50.602687 50.323663 50.041355 49.756055 49.467949 49.177324
48.884358 48.589328 48.292403 47.993845 47.693812 47.392551 47.090203 46.787000
46.483065 46.178612 45.873746 45.568660 45.263442 44.958264 44.653194 44.348385
44.043886 43.739829 43.436247 43.133248 42.830850 42.529141 42.228124 41.927867
41.628357 41.329647 41.031709 40.734578 40.438217 40.142643 39.847810 39.553719
39.260318 38.967594 38.675486 38.383972 38.092985 37.802491 37.512422 37.222733
36.933356 36.644238 36.355309 36.066512 35.777778
36.155556 36.481632 36.807772 37.134045 37.460511 37.787238 38.114279 38.441704
38.769557 39.097906 39.426783 39.756253 40.086337 40.417094 40.748532 41.080702
41.413595 41.747255 42.081656 42.416830 42.752734 43.089388 43.426726 43.764756
44.103392 44.442623 44.782345 45.122527 45.463043 45.803843 46.144778 46.485781
46.826675 47.167375 47.507683 47.847490 48.186577 48.524815 48.861963 49.197874
49.532285 49.865031 50.195832 50.524507 50.850761 51.174400 51.495114 51.812700
52.126842 52.437326 52.743835 53.046149 53.343953 53.637028 53.925061 54.207840
54.485061 54.756521 55.021929 55.281092 55.533739 55.779691 56.018697 56.250597
56.475162 56.692250 56.901657 57.103263 57.296886 57.482428 57.659733 57.828719
57.989256 58.141280 58.284684 58.419420 58.545401 58.662592 58.770925 58.870377
58.960895 59.042466 59.115049 59.178638 59.233203 59.278743 59.315239 59.342689
59.361084 59.370424 59.370707 59.361934 59.344110 59.317236 59.281326 59.236381
59.182424 59.119459 59.047517 58.966608 58.876774 58.778030 58.670433 58.554007
58.428825 58.294921 58.152386 58.001269 57.841683 57.673690 57.497427 57.312975
57.120494 56.920083 56.711929 56.496151 56.272960 56.042495 55.804992 55.560611
55.309607 55.052159 54.788544 54.518955 54.243685 53.962940 53.677028 53.386160
53.090656 52.790731 52.486709 52.178807 51.867348 51.552545 51.234718 50.914073
50.590920 50.265455 49.937978 49.608668 49.277811 48.945570 48.612213 48.277886
47.942834 47.607185 47.271163 46.934874 46.598521 46.262189 45.926057 45.590189
45.254741 44.919759 44.585373 44.251610 43.918579 43.586288 43.254824 42.924180
42.594420 42.265523 41.937534 41.610417 41.284198 40.958832 40.634326 40.310626
39.987724 39.665555 39.344099 39.023286 38.703082 38.383413 38.064233 37.745465
37.427056 37.108928 36.791018 36.473250 36.155556
36.533333 36.889171 37.245083 37.601138 37.957413 38.313971 38.670889 39.028221
39.386044 39.744401 40.103367 40.462973 40.823286 41.184325 41.546152 41.908767
42.272223 42.636505 43.001653 43.367633 43.734473 44.102117 44.470579 44.839781
45.209720 45.580293 45.951481 46.323155 46.695277 47.067693 47.440342 47.813046
48.185721 48.558164 48.930268 49.301804 49.672644 50.042533 50.411320 50.778728
51.144586 51.508594 51.870562 52.230173 52.587217 52.941365 53.292392 53.639956
53.983823 54.323645 54.659182 54.990081 55.316103 55.636896 55.952225 56.261746
56.565230 56.862348 57.152880 57.436517 57.713053 57.982200 58.243772 58.497504
58.743231 58.980716 59.209814 59.430317 59.642105 59.844994 60.038888 60.223633
60.399150 60.565313 60.722063 60.869295 61.006969 61.135002 61.253366 61.361996
61.460877 61.549960 61.629235 61.698670 61.758258 61.807978 61.847829 61.877796
61.897880 61.908075 61.908382 61.898803 61.879339 61.849999 61.810784 61.761711
61.702784 61.634028 61.555449 61.467086 61.368949 61.261089 61.143525 61.016326
60.879519 60.733193 60.577388 60.412215 60.237731 60.054070 59.861309 59.659607
59.449063 59.229863 59.002129 58.766074 58.521842 58.269676 58.009742 57.742308
57.467562 57.185797 56.897218 56.602141 56.300784 55.993482 55.680466 55.362080
55.038565 54.710274 54.377448 54.040444 53.699501 53.354974 53.007095 52.656214
52.302551 51.946444 51.588100 51.227842 50.865859 50.502456 50.137803 49.772181
49.405742 49.038743 48.671313 48.303684 47.935962 47.568355 47.200944 46.833911
46.467317 46.101317 45.735950 45.371344 45.007520 44.644582 44.282530 43.921444
43.561308 43.202181 42.844029 42.486890 42.130718 41.775530 41.421270 41.067936
40.715462 40.363831 40.012967 39.662840 39.313369 38.964509 38.616177 38.268316
37.920841 37.573687 37.226768 36.880011 36.533333
36.911111 37.296738 37.682444 38.068314 38.454419 38.840846 39.227660 39.614947
40.002760 40.391184 40.780260 41.170069 41.560637 41.952039 42.344284 42.737439
43.131495 43.526507 43.922448 44.319358 44.717190 45.115967 45.515619 45.916154
46.317475 46.719571 47.122319 47.525686 47.929524 48.333776 48.738266 49.142914
49.547514 49.951962 50.356025 50.759573 51.162345 51.564187 51.964809 52.364035
52.761551 53.157157 53.550517 53.941410 54.329482 54.714495 55.096080 55.473983
55.847827 56.217349 56.582165 56.942008 57.296494 57.645357 57.988219 58.324821
58.654794 58.977890 59.293759 59.602167 59.902786 60.195402 60.479711 60.755522
61.022561 61.280659 61.529575 61.769165 61.999219 62.219618 62.430182 62.630819
62.821378 63.001789 63.171927 63.331744 63.481140 63.620082 63.748493 63.866353
63.973605 64.070237 64.156208 64.231513 64.296124 64.350041 64.393245 64.425738
64.447510 64.458562 64.458894 64.448506 64.427403 64.395586 64.353067 64.299849
64.235951 64.161377 64.076159 63.980303 63.873854 63.756826 63.629279 63.491237
63.342778 63.183940 63.014824 62.835482 62.646041 62.446575 62.237237 62.018121
61.789414 61.551232 61.303793 61.047240 60.781820 60.507704 60.225168 59.934406
59.635726 59.329344 59.015591 58.694703 58.367035 58.032836 57.692478 57.346222
56.994452 56.637432 56.275554 55.909083 55.538408 55.163793 54.785620 54.404143
54.019736 53.632636 53.243203 52.851659 52.458342 52.063453 51.667310 51.270090
50.872086 50.473452 50.074454 49.675220 49.275987 48.876859 48.478046 48.079625
47.681778 47.284557 46.888116 46.492486 46.097792 45.704043 45.311338 44.919667
44.529103 44.139617 43.751261 43.363990 42.977831 42.592727 42.208685 41.825637
41.443570 41.062406 40.682118 40.302618 39.923865 39.545767 39.168269 38.791275
38.414720 38.038508 37.662564 37.286793 36.911111
37.288889 37.704330 38.119861 38.535566 38.951538 39.367855 39.784610 40.201869
40.619727 41.038237 41.457490 41.877525 42.298426 42.720217 43.142974 43.566702
43.991466 44.417251 44.844108 45.272001 45.700967 46.130942 46.561946 46.993892
47.426778 47.860489 48.295002 48.730172 49.165952 49.602169 50.038749 50.475487
50.912284 51.348905 51.785221 52.220967 52.655989 53.089988 53.522784 53.954051
54.383581 54.811024 55.236148 55.658579 56.078063 56.494207 56.906741 57.315258
57.719474 58.118972 58.513462 58.902523 59.285863 59.663064 60.033838 60.397776
60.754598 61.103914 61.445458 61.778860 62.103875 62.420158 62.727489 63.025553
63.314157 63.593019 63.861972 64.120773 64.369281 64.607287 64.834680 65.051284
65.257013 65.451725 65.635356 65.807791 65.968990 66.118862 66.257381 66.384481
66.500148 66.604332 66.697029 66.778205 66.847859 66.905970 66.952539 66.987556
67.011021 67.022930 67.023285 67.012088 66.989340 66.955048 66.909213 66.851850
66.782961 66.702570 66.610679 66.507328 66.392522 66.266316 66.128723 65.979817
65.819625 65.648240 65.465707 65.272144 65.067615 64.852270 64.626194 64.389569
64.142507 63.885222 63.617856 63.340657 63.053794 62.757553 62.452130 62.137842
61.814914 61.483692 61.144425 60.797487 60.443144 60.081794 59.713716 59.339323
58.958905 58.572886 58.181557 57.785345 57.384540 56.979565 56.570703 56.158368
55.742829 55.324485 54.903589 54.480520 54.055509 53.628914 53.200941 52.771920
52.342032 51.911580 51.480716 51.049712 50.618693 50.187902 49.757434 49.327499
48.898169 48.469621 48.041900 47.615155 47.189406 46.764772 46.341250 45.918931
45.497794 45.077902 44.659215 44.241773 43.825518 43.410467 42.996550 42.583763
42.172025 41.761310 41.351530 40.942644 40.534554 40.127204 39.720494 39.314355
38.908683 38.503399 38.098400 37.693597 37.288889
37.666667 38.111949 38.557326 39.002900 39.448759 39.895006 40.341720 40.789004
41.236924 41.685583 42.135032 42.585368 43.036627 43.488897 43.942196 44.396601
44.852112 45.308791 45.766614 46.225631 46.685791 47.147125 47.609556 48.073096
48.537637 49.003169 49.469554 49.936757 50.404607 50.873042 51.341860 51.810968
52.280132 52.749229 53.217990 53.686263 54.153746 54.620256 55.085459 55.549142
56.010940 56.470615 56.927773 57.382151 57.833331 58.281029 58.724809 59.164368
59.599258 60.029164 60.453630 60.872337 61.284829 61.690786 62.089759 62.481436
62.865382 63.241298 63.608771 63.967521 64.317162 64.657437 64.987993 65.308601
65.618944 65.918825 66.207963 66.486192 66.753273 67.009070 67.253382 67.486104
67.707069 67.916202 68.113369 68.298519 68.471546 68.632419 68.781060 68.917452
69.041537 69.153310 69.252731 69.339801 69.414493 69.476813 69.526744 69.564291
69.589447 69.602215 69.602594 69.590585 69.566193 69.529417 69.480270 69.418747
69.344870 69.258636 69.160076 69.049191 68.926025 68.790586 68.642935 68.483092
68.311140 68.127113 67.931118 67.723211 67.503530 67.272153 67.029250 66.774928
66.509395 66.232786 65.945347 65.647245 65.338766 65.020108 64.691595 64.353455
64.006049 63.649633 63.284599 62.911228 62.529939 62.141032 61.744946 61.341997
60.932636 60.517186 60.096106 59.669719 59.238485 58.802719 58.362875 57.919256
57.472303 57.022302 56.569674 56.114684 55.657730 55.199050 54.739016 54.277838
53.815857 53.353253 52.890336 52.427255 51.964285 51.501546 51.039279 50.577574
50.116637 49.656529 49.197424 48.739355 48.282464 47.826758 47.372348 46.919219
46.467452 46.017010 45.567948 45.120210 44.673824 44.228720 43.784902 43.342286
42.900855 42.460515 42.021227 41.582891 41.145451 40.708799 40.272866 39.837540
39.402739 38.968350 38.534281 38.100420 37.666667
38.044444 38.519591 38.994845 39.470307 39.946089 40.422283 40.899002 41.376327
41.854368 42.333193 42.812909 43.293567 43.775267 44.258042 44.741984 45.227102
45.713476 46.201095 46.690021 47.180218 47.671730 48.164493 48.658532 49.153752
49.650154 50.147611 50.646099 51.145458 51.645635 52.146435 52.647775 53.149422
53.651264 54.153030 54.654575 55.155593 55.655904 56.155166 56.653166 57.149528
57.644009 58.136200 58.625827 59.112454 59.595781 60.075349 60.550836 61.021764
61.487794 61.948439 62.403349 62.852031 63.294134 63.729168 64.156786 64.576509
64.988004 65.390809 65.784610 66.168972 66.543605 66.908108 67.262220 67.605578
67.937953 68.259025 68.568599 68.866399 69.152265 69.425963 69.687369 69.936289
70.172631 70.396241 70.607055 70.804951 70.989890 71.161781 71.320604 71.466292