<?xml version="1.0"?>
<VTKFile type="ImageData" version="0.1" byte_order="LittleEndian">
  <ImageData WholeExtent="0 180 0 180 0 0" Origin="0.0 0.0 0.0" Spacing="0.05 0.05 1">
    <Piece Extent="0 180 0 180 0 0">
      <PointData Scalars="Temperature">
        <DataArray type="Float32" Name="Temperature" format="ascii">
32.000000 32.000000 32.000000 32.000000 32.000000 32.000000 32.000000 32.000000 32.000000 32.000000 32.000000 32.000000 32.000000 32.000000 32.000000 32.000000 32.000000 32.000000 32.000000 32.000000 32.000000 32.000000 32.000000 32.000000 32.000000 32.000000 32.000000 32.000000 32.000000 32.000000 32.000000 32.000000 32.000000 32.000000 32.000000 32.000000 32.000000 32.000000 32.000000 32.000000 32.000000 32.000000 32.000000 32.000000 32.000000 32.000000 32.000000 32.000000 32.000000 32.000000 32.000000 32.000000 32.000000 32.000000 32.000000 32.000000 32.000000 32.000000 32.000000 32.000000 32.000000 32.000000 32.000000 32.000000 32.000000 32.000000 32.000000 32.000000 32.000000 32.000000 32.000000 32.000000 32.000000 32.000000 32.000000 32.000000 32.000000 32.000000 32.000000 32.000000 32.000000 32.000000 32.000000 32.000000 32.000000 32.000000 32.000000 32.000000 32.000000 32.000000 32.000000 32.000000 32.000000 32.000000 32.000000 32.000000 32.000000 32.000000 32.000000 32.000000 32.000000 32.000000 32.000000 32.000000 32.000000 32.000000 32.000000 32.000000 32.000000 32.000000 32.000000 32.000000 32.000000 32.000000 32.000000 32.000000 32.000000 32.000000 32.000000 32.000000 32.000000 32.000000 32.000000 32.000000 32.000000 32.000000 32.000000 32.000000 32.000000 32.000000 32.000000 32.000000 32.000000 32.000000 32.000000 32.000000 32.000000 32.000000 32.000000 32.000000 32.000000 32.000000 32.000000 32.000000 32.000000 32.000000 32.000000 32.000000 32.000000 32.000000 32.000000 32.000000 32.000000 32.000000 32.000000 32.000000 32.000000 32.000000 32.000000 32.000000 32.000000 32.000000 32.000000 32.000000 32.000000 32.000000 32.000000 32.000000 32.000000 32.000000 32.000000 32.000000 32.000000 32.000000 32.000000 32.000000 32.000000 32.000000 32.000000 32.000000 32.000000
32.377778 32.400963 32.424161 32.447385 32.470647 32.493962 32.517339 32.540794 32.564334 32.587976 32.611725 32.635597 32.659596 32.683738 32.708022 32.732467 32.757069 32.781845 32.806789 32.831916 32.857218 32.882710 32.908380 32.934241 32.960279 32.986505 33.012902 33.039479 33.066216 33.093121 33.120170 33.147370 33.174692 33.202142 33.229688 33.257335 33.285047 33.312826 33.340635 33.368474 33.396302 33.424119 33.451881 33.479584 33.507187 33.534682 33.562024 33.589208 33.616187 33.642952 33.669459 33.695698 33.721622 33.747224 33.772456 33.797310 33.821742 33.845741 33.869265 33.892306 33.914821 33.936803 33.958214 33.979045 33.999260 34.018853 34.037792 34.056070 34.073657 34.090549 34.106718 34.122162 34.136857 34.150799 34.163969 34.176364 34.187967 34.198776 34.208777 34.217970 34.226341 34.233892 34.240611 34.246500 34.251550 34.255763 34.259133 34.261661 34.263342 34.264178 34.264167 34.263310 34.261607 34.259059 34.255669 34.251435 34.246365 34.240457 34.233720 34.226152 34.217764 34.208556 34.198541 34.187719 34.176105 34.163700 34.150523 34.136575 34.121877 34.106431 34.090263 34.073375 34.055794 34.037526 34.018601 33.999024 33.978829 33.958022 33.936640 33.914691 33.892214 33.869216 33.845740 33.821795 33.797423 33.772635 33.747475 33.721953 33.696116 33.669972 33.643568 33.616913 33.590054 33.562999 33.535794 33.508447 33.481003 33.453468 33.425885 33.398260 33.370634 33.343010 33.315429 33.287890 33.260431 33.233052 33.205787 33.178633 33.151621 33.124747 33.098039 33.071490 33.045126 33.018938 32.992947 32.967143 32.941546 32.916141 32.890947 32.865947 32.841156 32.816556 32.792160 32.767949 32.743930 32.720087 32.696422 32.672918 32.649576 32.626378 32.603322 32.580390 32.557577 32.534867 32.512252 32.489714 32.467246 32.444831 32.422457 32.400111 32.377778
32.755556 32.801935 32.848342 32.894799 32.941336 32.987973 33.034741 33.081657 33.128753 33.176042 33.223557 33.271306 33.319323 33.367610 33.416202 33.465095 33.514323 33.563878 33.613792 33.664050 33.714683 33.765670 33.817040 33.868766 33.920874 33.973331 34.026160 34.079319 34.132831 34.186647 34.240785 34.295190 34.349876 34.404783 34.459920 34.515221 34.570691 34.626259 34.681924 34.737612 34.793317 34.848961 34.904534 34.959954 35.015208 35.070210 35.124946 35.179325 35.233333 35.286877 35.339940 35.392430 35.444328 35.495542 35.546055 35.595774 35.644683 35.692692 35.739784 35.785874 35.830945 35.874918 35.917776 35.959445 35.999911 36.039103 36.077012 36.113572 36.148774 36.182561 36.214926 36.245816 36.275227 36.303113 36.329471 36.354262 36.377483 36.399102 36.419118 36.437502 36.454255 36.469355 36.482802 36.494579 36.504687 36.513112 36.519856 36.524910 36.528274 36.529946 36.529925 36.528210 36.524803 36.519707 36.512922 36.504457 36.494310 36.482495 36.469012 36.453877 36.437091 36.418676 36.398632 36.376988 36.353745 36.328935 36.302561 36.274664 36.245246 36.214353 36.181990 36.148211 36.113022 36.076481 36.038599 35.999439 35.959014 35.917394 35.874593 35.830686 35.785691 35.739686 35.692691 35.644790 35.596001 35.546414 35.496047 35.444991 35.393267 35.340967 35.288109 35.234786 35.181018 35.126896 35.072436 35.017730 34.962791 34.907710 34.852495 34.797234 34.741934 34.686676 34.631465 34.576379 34.521416 34.466650 34.412075 34.357760 34.303694 34.249940 34.196484 34.143382 34.090615 34.038234 33.986217 33.934606 33.883377 33.832566 33.782145 33.732143 33.682531 33.633331 33.584510 33.536086 33.488024 33.440334 33.392982 33.345972 33.299268 33.252869 33.206738 33.160870 33.115229 33.069803 33.024557 32.979477 32.934528 32.889690 32.844932 32.800231 32.755556
33.133333 33.202928 33.272561 33.342274 33.412101 33.482086 33.552258 33.622665 33.693328 33.764297 33.835588 33.907252 33.979295 34.051769 34.124675 34.198063 34.271924 34.346308 34.421198 34.496641 34.572611 34.649153 34.726231 34.803886 34.882073 34.960828 35.040097 35.119913 35.200209 35.281014 35.362252 35.443945 35.526009 35.608459 35.691202 35.774247 35.857492 35.940941 36.024482 36.108114 36.191718 36.275286 36.358694 36.441929 36.524859 36.607469 36.689622 36.771299 36.852360 36.932782 37.012427 37.091266 37.169162 37.246086 37.321902 37.396580 37.469987 37.542094 37.612774 37.681998 37.749643 37.815685 37.880006 37.942586 38.003314 38.062173 38.119061 38.173964 38.226789 38.277525 38.326089 38.372473 38.416603 38.458474 38.498022 38.535243 38.570083 38.602540 38.632569 38.660169 38.685303 38.707972 38.728145 38.745824 38.760986 38.773634 38.783750 38.791337 38.796385 38.798894 38.798862 38.796289 38.791178 38.783528 38.773350 38.760642 38.745421 38.727685 38.707458 38.684737 38.659554 38.631908 38.601838 38.569342 38.534469 38.497219 38.457648 38.415760 38.371619 38.325232 38.276671 38.225946 38.173141 38.118268 38.061419 38.002610 37.941942 37.879436 37.815200 37.749257 37.681726 37.612631 37.542096 37.470150 37.396923 37.322443 37.246846 37.170161 37.092526 37.013970 36.934633 36.854544 36.773841 36.692550 36.610811 36.528645 36.446189 36.363461 36.280592 36.197596 36.114601 36.031614 35.948755 35.866027 35.783544 35.701300 35.619402 35.537838 35.456706 35.375989 35.295775 35.216040 35.136863 35.058214 34.980163 34.902676 34.825809 34.749526 34.673873 34.598809 34.524371 34.450514 34.377265 34.304576 34.232466 34.160884 34.089839 34.019280 33.949207 33.879568 33.810356 33.741517 33.673038 33.604866 33.536981 33.469330 33.401887 33.334603 33.267446 33.200368 33.133333
33.511111 33.603949 33.696841 33.789834 33.882987 33.976342 34.069960 34.163875 34.258153 34.352818 34.447938 34.543529 34.639658 34.736331 34.833616 34.931508 35.030074 35.129297 35.229242 35.329880 35.431273 35.533380 35.636257 35.739852 35.844216 35.949283 36.055099 36.161584 36.268778 36.376588 36.485046 36.594046 36.703613 36.813628 36.924109 37.034923 37.146080 37.257438 37.368996 37.480603 37.592250 37.703777 37.815167 37.926252 38.037009 38.147263 38.256985 38.365996 38.474262 38.581601 38.687976 38.793202 38.897242 38.999911 39.101172 39.200843 39.298885 39.395123 39.489519 39.581906 39.672247 39.760382 39.846281 39.929792 40.010888 40.089429 40.165393 40.238651 40.309184 40.376878 40.441718 40.503601 40.562516 40.618375 40.671169 40.720821 40.767328 40.810623 40.850705 40.887518 40.921065 40.951299 40.978223 41.001802 41.022038 41.038905 41.052406 41.062524 41.069260 41.072607 41.072564 41.069133 41.062312 41.052111 41.038528 41.021580 41.001266 40.977612 40.950615 40.920312 40.886701 40.849826 40.809688 40.766344 40.719792 40.670103 40.617277 40.561397 40.502466 40.440579 40.375744 40.308065 40.237559 40.164340 40.088429 40.009954 39.928939 39.845526 39.759741 39.671738 39.581549 39.489334 39.395131 39.299109 39.201306 39.101900 39.000930 38.898580 38.794887 38.690040 38.584075 38.477180 38.369392 38.260896 38.151725 38.042064 37.931939 37.821530 37.710857 37.600096 37.489259 37.378513 37.267864 37.157468 37.047325 36.937581 36.828226 36.719394 36.611069 36.503372 36.396278 36.289896 36.184193 36.079266 35.975073 35.871699 35.769094 35.667330 35.566352 35.466218 35.366867 35.268346 35.170589 35.073628 34.977397 34.881914 34.787110 34.692993 34.599491 34.506602 34.414254 34.322433 34.231067 34.140135 34.049565 33.959327 33.869353 33.779603 33.690012 33.600535 33.511111
33.888889 34.005010 34.121195 34.237514 34.354024 34.470800 34.587890 34.705374 34.823287 34.941716 35.060683 35.180275 35.300506 35.421461 35.543139 35.665627 35.788911 35.913073 36.038085 36.164028 36.290856 36.418645 36.547336 36.676998 36.807555 36.939070 37.071450 37.204751 37.338863 37.473832 37.609534 37.746004 37.883102 38.020853 38.159102 38.297864 38.436969 38.576421 38.716035 38.855808 38.995542 39.135223 39.274641 39.413775 39.552408 39.690507 39.827848 39.964395 40.099917 40.234372 40.367528 40.499339 40.629572 40.758180 40.884933 41.009782 41.132504 41.253050 41.371204 41.486921 41.599994 41.710380 41.817887 41.922475 42.023964 42.122321 42.217379 42.309112 42.397369 42.482128 42.563253 42.640729 42.714436 42.784363 42.850406 42.912559 42.970731 43.024922 43.075054 43.121129 43.163084 43.200922 43.234592 43.264100 43.289405 43.310513 43.327395 43.340057 43.348480 43.352668 43.352615 43.348321 43.339793 43.327028 43.310043 43.288835 43.263433 43.233832 43.200071 43.162147 43.120111 43.073960 43.023759 42.969506 42.911278 42.849078 42.782998 42.713042 42.639318 42.561835 42.480717 42.395977 42.307755 42.216071 42.121078 42.022804 41.921417 41.816951 41.709588 41.599366 41.486483 41.370981 41.253069 41.132792 41.010370 40.885852 40.759463 40.631254 40.501455 40.370118 40.237475 40.103574 39.968650 39.832747 39.696096 39.558736 39.420895 39.282605 39.144085 39.005359 38.866641 38.727942 38.589466 38.451215 38.313380 38.175955 38.039114 37.902841 37.767297 37.632455 37.498460 37.365275 37.233029 37.101675 36.971326 36.841925 36.713570 36.586196 36.459882 36.334557 36.210285 36.086988 35.964714 35.843379 35.723017 35.603541 35.484967 35.367208 35.250265 35.134050 35.018551 34.903679 34.789410 34.675656 34.562382 34.449502 34.336972 34.224707 34.112655 34.000736 33.888889
34.266667 34.406117 34.545649 34.685334 34.825262 34.965493 35.106124 35.247204 35.388833 35.531048 35.673951 35.817566 35.961997 36.107251 36.253432 36.400532 36.548652 36.697768 36.847979 36.999240 37.151645 37.305133 37.459791 37.615537 37.772452 37.930435 38.089556 38.249696 38.410913 38.573069 38.736213 38.900185 39.065023 39.230547 39.396783 39.563535 39.730814 39.898407 40.066314 40.234304 40.402367 40.570257 40.737951 40.905194 41.071952 41.237959 41.403172 41.567318 41.730348 41.891983 42.052170 42.210628 42.367299 42.521906 42.674389 42.824475 42.972103 43.117011 43.259139 43.398235 43.534243 43.666923 43.796226 43.921927 44.043982 44.162184 44.276495 44.386725 44.492846 44.594685 44.692221 44.785300 44.873907 44.957907 45.037293 45.111946 45.181864 45.246947 45.307196 45.362527 45.412944 45.458380 45.498838 45.534268 45.564674 45.590016 45.610301 45.625502 45.635623 45.640651 45.640588 45.635433 45.625187 45.609862 45.589455 45.563993 45.533471 45.497930 45.457363 45.411825 45.361311 45.305890 45.245558 45.180401 45.110417 45.035708 44.956277 44.872243 44.783615 44.690530 44.593002 44.491187 44.385107 44.274936 44.160704 44.042603 43.920670 43.795116 43.665984 43.533503 43.397722 43.258885 43.117047 42.972463 42.825194 42.675506 42.523460 42.369331 42.213182 42.055292 41.895721 41.734751 41.572439 41.409065 41.244681 41.079562 40.913753 40.747524 40.580907 40.414164 40.247319 40.080619 39.914078 39.747928 39.582171 39.417026 39.252478 39.088730 38.925756 38.763740 38.602644 38.442631 38.283652 38.125851 37.969166 37.813724 37.659451 37.506452 37.354646 37.204120 37.054781 36.906698 36.759773 36.614055 36.469440 36.325958 36.183504 36.042089 35.901605 35.762048 35.623308 35.485366 35.348113 35.211514 35.075464 34.939915 34.804765 34.669954 34.535384 34.400985 34.266667
34.644444 34.807283 34.970213 35.133332 35.296720 35.460486 35.624694 35.789459 35.954834 36.120935 36.287800 36.455549 36.624202 36.793879 36.964581 37.136429 37.309405 37.483625 37.659050 37.835793 38.013793 38.193156 38.373800 38.555822 38.739117 38.923772 39.109659 39.296855 39.485208 39.674782 39.865403 40.057121 40.249739 40.443293 40.637564 40.832573 41.028080 41.224092 41.420350 41.616845 41.813301 42.009695 42.205735 42.401386 42.596343 42.790560 42.983720 43.175769 43.366385 43.555502 43.742797 43.928199 44.111384 44.292280 44.470565 44.646166 44.818771 44.988307 45.154471 45.317197 45.476196 45.631405 45.782552 45.929583 46.072244 46.210488 46.344082 46.472989 46.596996 46.716075 46.830035 46.938857 47.042372 47.140567 47.233297 47.320554 47.402215 47.478277 47.548636 47.613295 47.672166 47.725256 47.772495 47.813890 47.849388 47.878997 47.902678 47.920437 47.932252 47.938126 47.938053 47.932032 47.920071 47.902168 47.878345 47.848599 47.812966 47.771440 47.724076 47.670867 47.611884 47.547121 47.476666 47.400517 47.318781 47.231459 47.138677 47.040443 46.936905 46.828076 46.714125 46.595075 46.471116 46.342279 46.208777 46.070650 45.928133 45.781273 45.630327 45.475350 45.316618 45.154193 44.988367 44.819209 44.647025 44.471886 44.294112 44.113774 43.931198 43.746458 43.559883 43.371541 43.181764 42.990616 42.798423 42.605242 42.411393 42.216923 42.022142 41.827086 41.632052 41.437062 41.242399 41.048070 40.854341 40.661204 40.468906 40.277423 40.086983 39.897546 39.709316 39.522241 39.336503 39.152034 38.968993 38.787301 38.607093 38.428277 38.250965 38.075056 37.900638 37.727603 37.556016 37.385760 37.216880 37.049254 36.882905 36.717708 36.553667 36.390653 36.228653 36.067538 35.907277 35.747743 35.588888 35.430589 35.272784 35.115355 34.958225 34.801284 34.644444
35.022222 35.208513 35.394913 35.581520 35.768453 35.955798 36.143680 36.332169 36.521398 36.711418 36.902367 37.094277 37.287288 37.481411 37.676786 37.873403 38.071399 38.270742 38.471564 38.673808 38.877600 39.082860 39.289703 39.498023 39.707927 39.919281 40.132180 40.346464 40.562214 40.779245 40.997620 41.217128 41.437818 41.659452 41.882063 42.105388 42.329441 42.553939 42.778877 43.003950 43.229138 43.454115 43.678847 43.902992 44.126500 44.349015 44.570478 44.790521 45.009075 45.225767 45.440519 45.652957 45.862998 46.070271 46.274691 46.475892 46.673791 46.868033 47.058537 47.244964 47.427237 47.605036 47.778291 47.946703 48.110212 48.268539 48.421636 48.569250 48.711340 48.847679 48.978238 49.102814 49.221388 49.333783 49.439987 49.539847 49.633360 49.720395 49.800956 49.874933 49.942332 50.003066 50.057142 50.104493 50.145126 50.178992 50.206097 50.226409 50.239932 50.246652 50.246568 50.239683 50.225994 50.205518 50.178252 50.144229 50.103443 50.055944 50.001726 49.940857 49.873331 49.799235 49.718566 49.631433 49.537834 49.437901 49.331638 49.219201 49.100600 48.976016 48.845469 48.709163 48.567128 48.419595 48.266604 48.108411 47.945067 47.776851 47.603826 47.426293 47.244324 47.058242 46.868125 46.674316 46.476897 46.276226 46.072389 45.865755 45.656410 45.444730 45.230799 45.014995 44.797399 44.578386 44.358029 44.136698 43.914456 43.691663 43.468369 43.244923 43.021358 42.798008 42.574890 42.352319 42.130296 41.909114 41.688756 41.469493 41.251290 41.034392 40.818749 40.604579 40.391816 40.180653 39.971007 39.763043 39.556666 39.352014 39.148979 38.947673 38.747976 38.549974 38.353540 38.158734 37.965419 37.773634 37.583237 37.394241 37.206503 37.020013 36.834627 36.650315 36.466934 36.284434 36.102674 35.921589 35.741041 35.560950 35.381184 35.201649 35.022222
35.400000 35.609819 35.819755 36.029939 36.240473 36.451498 36.663101 36.875430 37.088552 37.302622 37.517687 37.733905 37.951301 38.170033 38.390105 38.611671 38.834710 39.059373 39.285612 39.513573 39.743179 39.974567 40.207634 40.442504 40.679045 40.917369 41.157312 41.398974 41.642160 41.886952 42.133128 42.380750 42.629567 42.879623 43.130636 43.382633 43.635305 43.888658 44.142357 44.396390 44.650399 44.904352 45.157871 45.410908 45.663068 45.914286 46.164156 46.412598 46.659198 46.903867 47.146184 47.386054 47.623057 47.857093 48.087748 48.314922 48.538210 48.757514 48.972443 49.182906 49.388530 49.589232 49.784661 49.974743 50.159152 50.337827 50.510467 50.677024 50.837227 50.991037 51.138212 51.278728 51.412370 51.539122 51.658801 51.771399 51.876759 51.974881 52.065633 52.149021 52.224936 52.293387 52.354289 52.407650 52.453408 52.491570 52.522091 52.544979 52.560206 52.567777 52.567684 52.559927 52.544515 52.521444 52.490744 52.452406 52.406478 52.352951 52.291891 52.223289 52.147232 52.063712 51.972839 51.874608 51.769153 51.656473 51.536730 51.409929 51.276259 51.135735 50.988574 50.834801 50.674663 50.508196 50.335676 50.157153 49.972930 49.783069 49.587900 49.387497 49.182216 48.972141 48.757648 48.538831 48.316084 48.089507 47.859508 47.626190 47.389971 47.150953 46.909561 46.665891 46.420370 46.173086 45.924462 45.674575 45.423841 45.172324 44.920424 44.668192 44.416012 44.163916 43.912268 43.661081 43.410697 43.161110 42.912634 42.665244 42.419229 42.174542 41.931444 41.689869 41.450048 41.211897 40.975618 40.741109 40.508541 40.277798 40.049021 39.822080 39.597087 39.373901 39.152605 38.933047 38.715283 38.499156 38.284693 38.071733 37.860277 37.650161 37.441365 37.233722 37.027190 36.821605 36.616903 36.412926 36.209591 36.006745 35.804289 35.602079 35.400000
35.777778 36.011203 36.244767 36.478594 36.712835 36.947597 37.183042 37.419256 37.656409 37.894567 38.133903 38.374461 38.616415 38.859785 39.104743 39.351282 39.599574 39.849580 40.101467 40.355167 40.610838 40.868381 41.127942 41.389391 41.652860 41.918187 42.185488 42.454566 42.725522 42.998125 43.272455 43.548248 43.825564 44.104107 44.383915 44.664661 44.946359 45.228653 45.511537 45.794626 46.077891 46.360924 46.643677 46.925719 47.206983 47.487023 47.765755 48.042719 48.317819 48.590589 48.860921 49.128346 49.392751 49.653671 49.910989 50.164249 50.413335 50.657805 50.897549 51.132142 51.361483 51.585168 51.803109 52.014928 52.220549 52.419623 52.612088 52.797628 52.976193 53.147500 53.311513 53.467981 53.616882 53.757997 53.891314 54.016646 54.133991 54.243189 54.344246 54.437030 54.521552 54.597706 54.665503 54.724862 54.775795 54.818242 54.852213 54.877669 54.894617 54.903039 54.902936 54.894310 54.877158 54.851500 54.817331 54.774691 54.723570 54.664029 54.596057 54.519737 54.435059 54.342129 54.240939 54.131621 54.014171 53.888751 53.755363 53.614196 53.465264 53.308788 53.144791 52.973528 52.795034 52.609597 52.417266 52.218361 52.012947 51.801375 51.583723 51.360372 51.131412 50.897251 50.657992 50.414064 50.165577 49.912982 49.656393 49.396273 49.132738 48.866261 48.596956 48.325298 48.051395 47.775720 47.498370 47.219813 46.940131 46.659780 46.378826 46.097708 45.816473 45.535539 45.254933 44.975049 44.695891 44.417827 44.140838 43.865260 43.591056 43.318529 43.047618 42.778595 42.511378 42.246206 41.982976 41.721893 41.462838 41.205982 40.951188 40.698595 40.448051 40.199665 39.953272 39.708947 39.466520 39.226033 38.987310 38.750365 38.515016 38.281251 38.048886 37.817882 37.588059 37.359352 37.131584 36.904670 36.678437 36.452782 36.227541 36.002590 35.777778
36.155556 36.412680 36.669951 36.927528 37.185542 37.444165 37.703507 37.963748 38.224978 38.487384 38.751029 39.016106 39.282650 39.550855 39.820728 40.092461 40.366030 40.641622 40.919180 41.198885 41.480645 41.764630 42.050714 42.339052 42.629484 42.922147 43.216846 43.513699 43.812473 44.113265 44.415807 44.720173 45.026058 45.333512 45.642194 45.952131 46.262947 46.574644 46.886815 47.199437 47.512072 47.824676 48.136785 48.448331 48.758832 49.068198 49.375929 49.681922 49.985664 50.287038 50.585526 50.881002 51.172948 51.461235 51.745349 52.025161 52.300171 52.570252 52.834923 53.094066 53.347222 53.594283 53.834819 54.068736 54.295635 54.515437 54.727777 54.932593 55.129557 55.318620 55.499492 55.672140 55.836308 55.991980 56.138934 56.277164 56.406483 56.526894 56.638241 56.740534 56.833645 56.917588 56.992264 57.057686 57.113779 57.160556 57.197966 57.226018 57.244681 57.253962 57.253850 57.244346 57.225460 57.197189 57.159564 57.112575 57.056277 56.990656 56.915791 56.831666 56.738385 56.635934 56.524443 56.403901 56.274469 56.136142 55.989112 55.833385 55.669184 55.496528 55.315676 55.126661 54.929778 54.725075 54.512884 54.293269 54.066599 53.832953 53.592736 53.346042 53.093307 52.834640 52.570503 52.301017 52.026670 51.747588 51.464277 51.176869 50.885883 50.591449 50.294092 49.993939 49.691516 49.386940 49.080732 48.772995 48.464238 48.154550 47.844422 47.533924 47.223525 46.913272 46.603611 46.294563 45.986546 45.679556 45.373979 45.069787 44.767330 44.466556 44.167780 43.870925 43.576270 43.283714 42.993500 42.705505 42.419936 42.136651 41.855819 41.577280 41.301169 41.027312 40.755806 40.486468 40.219360 39.954290 39.691288 39.430154 39.170890 38.913291 38.657329 38.402802 38.149651 37.897677 37.646798 37.396820 37.147636 36.899061 36.650967 36.403181 36.155556
36.533333 36.814249 37.095334 37.376740 37.658651 37.941200 38.224581 38.508904 38.794373 39.081071 39.369209 39.658841 39.950180 40.243252 40.538268 40.835222 41.134320 41.435522 41.739029 42.044763 42.352914 42.663369 42.976302 43.291562 43.609308 43.929348 44.251822 44.576497 44.903491 45.232532 45.563714 45.896723 46.231628 46.568075 46.906107 47.245331 47.585761 47.926970 48.268943 48.611218 48.953756 49.296063 49.638073 49.979268 50.319557 50.658402 50.995691 51.330869 51.663810 51.993948 52.321144 52.644829 52.964857 53.280663 53.592098 53.898607 54.200043 54.495869 54.785945 55.069757 55.347175 55.617714 55.881259 56.137358 56.385913 56.626508 56.859064 57.083205 57.298868 57.505719 57.703713 57.892556 58.072221 58.242451 58.403236 58.554356 58.695812 58.827419 58.949189 59.060970 59.162776 59.254488 59.336123 59.407588 59.468901 59.519993 59.560880 59.591518 59.611915 59.622052 59.621930 59.611552 59.590915 59.560041 59.518921 59.467600 59.406066 59.334387 59.252546 59.160639 59.058649 58.946698 58.824773 58.693025 58.551447 58.400224 58.239357 58.069068 57.889369 57.700521 57.502548 57.295753 57.080177 56.856162 56.623769 56.383380 56.135075 55.879274 55.616077 55.345940 55.068981 54.785689 54.496196 54.201022 53.900307 53.594597 53.284037 52.969192 52.650209 52.327663 52.001700 51.672897 51.341394 51.007764 50.672134 50.335070 49.996681 49.657517 49.317667 48.977659 48.637561 48.297872 47.958635 47.620321 47.282943 46.946939 46.612294 46.279410 45.948244 45.619159 45.292085 44.967346 44.644844 44.324863 44.007283 43.692344 43.379904 43.070165 42.762963 42.458459 42.156473 41.857128 41.560229 41.265860 40.973815 40.684144 40.396629 40.111287 39.827896 39.546438 39.266692 38.988606 38.711961 38.436679 38.162542 37.889446 37.617183 37.345622 37.074567 36.803865 36.533333
36.911111 37.215924 37.520913 37.826271 38.132156 38.438773 38.746257 39.054825 39.364584 39.675760 39.988431 40.302828 40.618997 40.937169 41.257357 41.579790 41.904444 42.231541 42.561021 42.893096 43.227666 43.564929 43.904744 44.247292 44.592391 44.940201 45.290497 45.643417 45.998689 46.356429 46.716320 47.078450 47.442458 47.808402 48.175881 48.544920 48.915077 49.286349 49.658252 50.030753 50.403334 50.775932 51.147997 51.519440 51.889683 52.258614 52.625633 52.990607 53.352924 53.712433 54.068515 54.421008 54.769293 55.113202 55.452125 55.785894 56.113914 56.436021 56.751643 57.060628 57.362433 57.656919 57.943577 58.222289 58.492584 58.754362 59.007197 59.251009 59.485415 59.710358 59.925500 60.130802 60.325971 60.510986 60.685595 60.849795 61.003372 61.146333 61.278503 61.399897 61.510374 61.609953 61.698523 61.776105 61.842616 61.898075 61.942423 61.975676 61.997800 62.008802 62.008673 61.997411 61.975031 61.941523 61.896925 61.841222 61.774474 61.696662 61.607872 61.508084 61.397412 61.275835 61.143498 61.000387 60.846681 60.682371 60.507676 60.322598 60.127396 59.922087 59.706973 59.482090 59.247781 59.004105 58.751450 58.489895 58.219874 57.941485 57.655205 57.361155 57.059850 56.751427 56.436439 56.115037 55.787802 55.454897 55.116925 54.774054 54.426905 54.075645 53.720901 53.362836 53.002079 52.638781 52.273562 51.906559 51.538377 51.169132 50.799411 50.429302 50.059367 49.689668 49.320733 48.952596 48.585750 48.220197 47.856393 47.494308 47.134356 46.776477 46.421043 46.067963 45.717565 45.369731 45.024745 44.682462 44.343121 44.006555 43.672959 43.342146 43.014267 42.689118 42.366808 42.047119 41.730120 41.415583 41.103537 40.793747 40.486207 40.180676 39.877114 39.575280 39.275102 38.976342 38.678898 38.382538 38.087133 37.792460 37.498366 37.204642 36.911111
37.288889 37.617702 37.946716 38.276114 38.606112 38.936870 39.268619 39.601490 39.935725 40.271427 40.608843 40.948043 41.289277 41.632581 41.978203 42.326142 42.676642 43.029661 43.385433 43.743876 44.105212 44.469314 44.836388 45.206261 45.579120 45.954746 46.333302 46.714523 47.098543 47.485050 47.874150 48.265483 48.659123 49.054663 49.452146 49.851116 50.251583 50.653049 51.055490 51.458364 51.861617 52.264669 52.667434 53.069302 53.470155 53.869359 54.266771 54.661736 55.054092 55.443171 55.828795 56.210292 56.587477 56.959682 57.326716 57.687927 58.043126 58.391681 58.733415 59.067723 59.394442 59.713002 60.023261 60.324690 60.617167 60.900209 61.173719 61.437260 61.690759 61.933830 62.166423 62.388200 62.599133 62.798932 62.987586 63.164851 63.330731 63.485021 63.627740 63.758719 63.877983 63.985400 64.080994 64.164666 64.236439 64.296243 64.344095 64.379950 64.403820 64.415684 64.415546 64.403406 64.379262 64.343137 64.295018 64.234956 64.162929 64.079013 63.983185 63.875547 63.756074 63.624902 63.482006 63.327557 63.161539 62.984160 62.795414 62.595552 62.384583 62.162803 61.930240 61.687237 61.433843 61.170452 60.897136 60.614338 60.322154 60.021076 59.711225 59.393136 59.066954 58.733256 58.392204 58.044410 57.690054 57.329777 56.963765 56.592682 56.216719 55.836551 55.452366 55.064846 54.674169 54.281011 53.885537 53.488411 53.089777 52.690280 52.290037 51.889669 51.489265 51.089411 50.690166 50.292081 49.895178 49.499968 49.106441 48.715064 48.325790 47.939043 47.554741 47.173261 46.794491 46.418757 46.045919 45.676255 45.309598 44.946179 44.585806 44.228662 43.874535 43.523564 43.175519 42.830494 42.488245 42.148825 41.811981 41.477722 41.145791 40.816160 40.488567 40.162950 39.839048 39.516766 39.195847 38.876165 38.557473 38.239616 37.922359 37.605523 37.288889
37.666667 38.019597 38.372736 38.726309 39.080504 39.435562 39.791642 40.149001 40.507766 40.868202 41.230405 41.594644 41.960978 42.329678 42.700764 43.074503 43.450874 43.830137 44.212228 44.597393 44.985523 45.376850 45.771216 46.168833 46.569495 46.973388 47.380258 47.790263 48.203096 48.618888 49.037279 49.458365 49.881736 50.307454 50.735057 51.164570 51.595483 52.027783 52.460914 52.894828 53.328923 53.763116 54.196768 54.629762 55.061428 55.491617 55.919634 56.345306 56.767919 57.187280 57.602667 58.013873 58.420174 58.821359 59.216714 59.606026 59.988600 60.364231 60.732252 61.092472 61.444259 61.787441 62.121429 62.446074 62.760835 63.065590 63.359849 63.643518 63.916158 64.177706 64.427775 64.666327 64.893029 65.107864 65.310551 65.501091 65.679249 65.845041 65.998276 66.138977 66.266993 66.382353 66.484937 66.574778 66.651785 66.715986 66.767322 66.805810 66.831416 66.844152 66.844006 66.830978 66.805082 66.766308 66.714692 66.650215 66.572940 66.482842 66.380011 66.264416 66.136181 65.995275 65.841854 65.675895 65.497592 65.306931 65.104150 64.889249 64.662512 64.423958 64.173924 63.912451 63.639927 63.356419 63.062371 62.757877 62.443434 62.119164 61.785616 61.442940 61.091731 60.732162 60.364875 59.990059 59.608391 59.220077 58.825822 58.425837 58.020847 57.611064 57.197223 56.779530 56.358718 55.934981 55.509043 55.081079 54.651794 54.221338 53.790392 53.359074 52.928035 52.497357 52.067654 51.638974 51.211886 50.786401 50.363042 49.941783 49.523099 49.106924 48.693684 48.283277 47.876078 47.471952 47.071219 46.673716 46.279711 45.889012 45.501837 45.117970 44.737578 44.360424 43.986629 43.615937 43.248424 42.883822 42.522160 42.163163 41.806819 41.452846 41.101193 40.751578 40.403912 40.057918 39.713472 39.370303 39.028258 38.687075 38.346573 38.006506 37.666667