<?xml version="1.0"?>
<VTKFile type="ImageData" version="0.1" byte_order="LittleEndian">
  <ImageData WholeExtent="0 180 0 180 0 0" Origin="0.0 0.0 0.0" Spacing="0.05 0.05 1">
    <Piece Extent="0 180 0 180 0 0">
      <PointData Scalars="Temperature">
        <DataArray type="Float32" Name="Temperature" format="ascii">
32.000000 32.000000 32.000000 32.000000 32.000000 32.000000 32.000000 32.000000 32.000000 32.000000 32.000000 32.000000 32.000000 32.000000 32.000000 32.000000 32.000000 32.000000 32.000000 32.000000 32.000000 32.000000 32.000000 32.000000 32.000000 32.000000 32.000000 32.000000 32.000000 32.000000 32.000000 32.000000 32.000000 32.000000 32.000000 32.000000 32.000000 32.000000 32.000000 32.000000 32.000000 32.000000 32.000000 32.000000 32.000000 32.000000 32.000000 32.000000 32.000000 32.000000 32.000000 32.000000 32.000000 32.000000 32.000000 32.000000 32.000000 32.000000 32.000000 32.000000 32.000000 32.000000 32.000000 32.000000 32.000000 32.000000 32.000000 32.000000 32.000000 32.000000 32.000000 32.000000 32.000000 32.000000 32.000000 32.000000 32.000000 32.000000 32.000000 32.000000 32.000000 32.000000 32.000000 32.000000 32.000000 32.000000 32.000000 32.000000 32.000000 32.000000 32.000000 32.000000 32.000000 32.000000 32.000000 32.000000 32.000000 32.000000 32.000000 32.000000 32.000000 32.000000 32.000000 32.000000 32.000000 32.000000 32.000000 32.000000 32.000000 32.000000 32.000000 32.000000 32.000000 32.000000 32.000000 32.000000 32.000000 32.000000 32.000000 32.000000 32.000000 32.000000 32.000000 32.000000 32.000000 32.000000 32.000000 32.000000 32.000000 32.000000 32.000000 32.000000 32.000000 32.000000 32.000000 32.000000 32.000000 32.000000 32.000000 32.000000 32.000000 32.000000 32.000000 32.000000 32.000000 32.000000 32.000000 32.000000 32.000000 32.000000 32.000000 32.000000 32.000000 32.000000 32.000000 32.000000 32.000000 32.000000 32.000000 32.000000 32.000000 32.000000 32.000000 32.000000 32.000000 32.000000 32.000000 32.000000 32.000000 32.000000 32.000000 32.000000 32.000000 32.000000 32.000000 32.000000 32.000000 32.000000 32.000000 32.000000 32.000000
32.377778 32.401300 32.424834 32.448394 32.471990 32.495638 32.519345 32.543129 32.566995 32.590959 32.615028 32.639215 32.663526 32.687974 32.712562 32.737304 32.762198 32.787260 32.812485 32.837886 32.863457 32.889210 32.915135 32.941243 32.967522 32.993981 33.020603 33.047399 33.074347 33.101455 33.128699 33.156086 33.183587 33.211208 33.238919 33.266721 33.294581 33.322500 33.350442 33.378405 33.406352 33.434278 33.462143 33.489943 33.517634 33.545211 33.572630 33.599883 33.626926 33.653749 33.680308 33.706594 33.732560 33.758198 33.783463 33.808345 33.832800 33.856819 33.880360 33.903413 33.925938 33.947927 33.969342 33.990174 34.010389 34.029981 34.048915 34.067188 34.084768 34.101653 34.117814 34.133249 34.147934 34.161866 34.175026 34.187411 34.199004 34.209803 34.219795 34.228979 34.237342 34.244884 34.251597 34.257480 34.262525 34.266734 34.270101 34.272626 34.274306 34.275142 34.275132 34.274277 34.272578 34.270034 34.266649 34.262423 34.257360 34.251460 34.244732 34.237174 34.228798 34.219601 34.209598 34.198789 34.187187 34.174796 34.161632 34.147696 34.133011 34.117578 34.101421 34.084544 34.066974 34.048715 34.029797 34.010226 33.990035 33.969231 33.947849 33.925897 33.903415 33.880409 33.856921 33.832961 33.808571 33.783760 33.758573 33.733020 33.707146 33.680960 33.654509 33.627803 33.600885 33.573767 33.546492 33.519068 33.491541 33.463916 33.436236 33.408507 33.380770 33.353027 33.325319 33.297646 33.270046 33.242517 33.215095 33.187775 33.160590 33.133534 33.106637 33.079891 33.053322 33.026921 33.000709 32.974678 32.948844 32.923197 32.897752 32.872496 32.847440 32.822571 32.797897 32.773403 32.749096 32.724958 32.700993 32.677185 32.653533 32.630021 32.606647 32.583394 32.560256 32.537217 32.514271 32.491401 32.468598 32.445846 32.423135 32.400449 32.377778
32.755556 32.802608 32.849687 32.896815 32.944020 32.991322 33.038751 33.086324 33.134071 33.182005 33.230159 33.278538 33.327178 33.376079 33.425275 33.474763 33.524575 33.574703 33.625177 33.675984 33.727152 33.778662 33.830541 33.882763 33.935351 33.988274 34.041554 34.095150 34.149082 34.203304 34.257831 34.312611 34.367655 34.422905 34.478368 34.533981 34.589745 34.645593 34.701523 34.757460 34.813400 34.869264 34.925043 34.980654 35.036086 35.091253 35.146140 35.200658 35.254793 35.308452 35.361619 35.414202 35.466183 35.517471 35.568047 35.617822 35.666777 35.714826 35.761949 35.808065 35.853155 35.897142 35.940008 35.981681 36.022145 36.061334 36.099234 36.135783 36.170972 36.204744 36.237091 36.267963 36.297355 36.325221 36.351559 36.376329 36.399530 36.421129 36.441126 36.459492 36.476229 36.491314 36.504747 36.516512 36.526609 36.535025 36.541763 36.546812 36.550175 36.551847 36.551827 36.550118 36.546717 36.541630 36.534856 36.526404 36.516272 36.504474 36.491009 36.475895 36.459131 36.440739 36.420720 36.399101 36.375883 36.351099 36.324752 36.296881 36.267488 36.236620 36.204282 36.170525 36.135356 36.098834 36.060967 36.021819 35.981403 35.939788 35.896987 35.853076 35.808070 35.762049 35.715032 35.667100 35.618275 35.568642 35.518222 35.467104 35.415308 35.362924 35.309974 35.256547 35.202664 35.148414 35.093815 35.038956 34.983852 34.928590 34.873182 34.817713 34.762191 34.706696 34.651233 34.595878 34.540633 34.485567 34.430678 34.376032 34.321621 34.267504 34.213670 34.160173 34.106997 34.054191 34.001733 33.949666 33.897967 33.846669 33.795749 33.745233 33.695094 33.645353 33.595979 33.546989 33.498350 33.450072 33.402121 33.354501 33.307179 33.260152 33.213386 33.166874 33.120583 33.074501 33.028595 32.982849 32.937230 32.891720 32.846286 32.800908 32.755556
33.133333 33.203937 33.274577 33.345295 33.416123 33.487105 33.558268 33.629659 33.701298 33.773235 33.845482 33.918091 33.991068 34.064462 34.138274 34.212552 34.287288 34.362530 34.438260 34.514525 34.591298 34.668623 34.746464 34.824860 34.903767 34.983220 35.063166 35.143634 35.224561 35.305972 35.387794 35.470047 35.552648 35.635610 35.718843 35.802353 35.886040 35.969907 36.053845 36.137849 36.221805 36.305701 36.389417 36.472937 36.556134 36.638989 36.721369 36.803252 36.884504 36.965097 37.044897 37.123875 37.201895 37.278927 37.354838 37.429597 37.503075 37.575240 37.645967 37.715227 37.782901 37.848962 37.913295 37.975879 38.036606 38.095457 38.152333 38.207218 38.260023 38.310735 38.359274 38.405629 38.449730 38.491570 38.531087 38.568277 38.603086 38.635514 38.665514 38.693087 38.718196 38.740841 38.760993 38.778654 38.793801 38.806435 38.816542 38.824122 38.829167 38.831676 38.831647 38.829081 38.823980 38.816344 38.806182 38.793494 38.778296 38.760585 38.740386 38.717696 38.692546 38.664935 38.634901 38.602444 38.567609 38.530400 38.490869 38.449020 38.404918 38.358569 38.310044 38.259354 38.206580 38.151735 38.094909 38.036120 37.975466 37.912967 37.848732 37.782784 37.715237 37.646119 37.575551 37.503562 37.430280 37.355734 37.280057 37.203279 37.125536 37.046858 36.967383 36.887139 36.806264 36.724784 36.642835 36.560442 36.477738 36.394741 36.311583 36.228278 36.144949 36.061608 35.978371 35.895243 35.812335 35.729645 35.647275 35.565218 35.483567 35.402308 35.321526 35.241202 35.161411 35.082126 35.003414 34.925244 34.847672 34.770662 34.694260 34.618427 34.543198 34.468531 34.394453 34.320917 34.247942 34.175478 34.103535 34.032063 33.961063 33.890484 33.820319 33.750516 33.681063 33.611909 33.543032 33.474383 33.405937 33.337645 33.269475 33.201384 33.133333
33.511111 33.605292 33.699525 33.793857 33.888344 33.983026 34.077964 34.173190 34.268767 34.364720 34.461114 34.557964 34.655336 34.753234 34.851725 34.950803 35.050534 35.150899 35.251962 35.353695 35.456156 35.559305 35.663197 35.767779 35.873102 35.979098 36.085813 36.193168 36.301200 36.409817 36.519051 36.628796 36.739076 36.849774 36.960903 37.072337 37.184081 37.295995 37.408079 37.520182 37.632295 37.744258 37.856056 37.967521 38.078629 38.189209 38.299231 38.408517 38.517033 38.624599 38.731178 38.836588 38.940790 39.043604 39.144989 39.244768 39.342900 39.439215 39.533672 39.626107 39.716483 39.804643 39.890555 39.974072 40.055163 40.133694 40.209639 40.282874 40.353378 40.421040 40.485844 40.547688 40.606564 40.662381 40.715133 40.764743 40.811208 40.854463 40.894506 40.931283 40.964795 40.994998 41.021893 41.045447 41.065662 41.082512 41.096000 41.106109 41.112841 41.116188 41.116150 41.112727 41.105920 41.095737 41.082176 41.065255 41.044971 41.021351 40.994393 40.964131 40.930564 40.893736 40.853648 40.810354 40.763856 40.714220 40.661449 40.605621 40.546745 40.484908 40.420122 40.352490 40.282027 40.208846 40.132968 40.054520 39.973526 39.890123 39.804342 39.716332 39.626125 39.533880 39.439635 39.343556 39.245683 39.146189 39.045116 38.942642 38.838809 38.733799 38.627653 38.520553 38.412538 38.303790 38.194344 38.084380 37.973927 37.863161 37.752106 37.640932 37.529655 37.418437 37.307287 37.196359 37.085654 36.975314 36.865334 36.755844 36.646830 36.538411 36.430564 36.323397 36.216879 36.111104 36.006033 35.901749 35.798206 35.695474 35.593500 35.492341 35.391939 35.292339 35.193478 35.095389 34.998006 34.901349 34.805350 34.710017 34.615281 34.521139 34.427523 34.334418 34.241756 34.149514 34.057625 33.966057 33.874747 33.783653 33.692715 33.601887 33.511111
33.888889 34.006686 34.124546 34.242536 34.360710 34.479143 34.597880 34.716999 34.836535 34.956570 35.077128 35.198291 35.320073 35.442556 35.565740 35.689707 35.814444 35.940031 36.066439 36.193745 36.321907 36.450996 36.580953 36.711845 36.843598 36.976271 37.109774 37.244157 37.379315 37.515289 37.651959 37.789356 37.927343 38.065943 38.205002 38.344533 38.484370 38.624513 38.764783 38.905171 39.045485 39.185707 39.325633 39.465237 39.604308 39.742810 39.880524 40.017409 40.153243 40.287977 40.421387 40.553423 40.683858 40.812641 40.939548 41.064528 41.187362 41.307999 41.426228 41.542001 41.655117 41.765531 41.873053 41.977644 42.079127 42.177467 42.272502 42.364203 42.452423 42.537139 42.618218 42.695644 42.769300 42.839174 42.905163 42.967262 43.025382 43.079521 43.129604 43.175632 43.217544 43.255341 43.288976 43.318452 43.343730 43.364816 43.381682 43.394332 43.402750 43.406937 43.406890 43.402608 43.394096 43.381354 43.364397 43.343223 43.317859 43.288301 43.254588 43.216717 43.174737 43.128646 43.078507 43.024319 42.966158 42.904027 42.838015 42.768128 42.694471 42.617055 42.535999 42.451319 42.363152 42.271518 42.176568 42.078330 41.976969 41.872521 41.765163 41.654936 41.542032 41.426497 41.308533 41.188190 41.065681 40.941057 40.814540 40.686181 40.556208 40.424673 40.291804 40.157651 40.022445 39.886232 39.749238 39.611505 39.473256 39.334525 39.195528 39.056292 38.917023 38.777740 38.638639 38.499728 38.361192 38.223027 38.085406 37.948315 37.811911 37.676172 37.541238 37.407075 37.273811 37.141401 37.009957 36.879424 36.749898 36.621317 36.493760 36.367158 36.241573 36.116932 35.993280 35.870538 35.748738 35.627797 35.507731 35.388455 35.269972 35.152194 35.035112 34.918638 34.802750 34.687363 34.572441 34.457903 34.343704 34.229763 34.116028 34.002424 33.888889
34.266667 34.408125 34.549662 34.691349 34.833270 34.975486 35.118090 35.261129 35.404700 35.548840 35.693647 35.839144 35.985431 36.132516 36.280499 36.429371 36.579231 36.730054 36.881934 37.034829 37.188829 37.343874 37.500045 37.657266 37.815610 37.974980 38.135441 38.296877 38.459343 38.622704 38.787002 38.952084 39.117982 39.284522 39.451724 39.619396 39.787547 39.955967 40.124653 40.293379 40.462131 40.630668 40.798964 40.966770 41.134046 41.300534 41.466187 41.630738 41.794134 41.956103 42.116587 42.275314 42.432220 42.587035 42.739696 42.889937 43.037694 43.182710 43.324922 43.464083 43.600137 43.732849 43.862166 43.987869 44.109912 44.228092 44.342370 44.452561 44.558634 44.660421 44.757898 44.850915 44.939458 45.023393 45.102712 45.177300 45.247152 45.312173 45.372360 45.427635 45.477998 45.523385 45.563800 45.599191 45.629563 45.654879 45.675143 45.690331 45.700444 45.705472 45.705416 45.700275 45.690049 45.674751 45.654379 45.628957 45.598483 45.562994 45.522486 45.477011 45.426566 45.371217 45.310963 45.245884 45.175983 45.101356 45.022010 44.938060 44.849516 44.756511 44.659061 44.557320 44.451309 44.341200 44.227023 44.108967 43.987070 43.861539 43.732419 43.599933 43.464133 43.325257 43.183363 43.038701 42.891333 42.741520 42.589327 42.435021 42.278669 42.120544 41.960708 41.799439 41.636794 41.473051 41.308262 41.142698 40.976406 40.809650 40.642468 40.475114 40.307617 40.140218 39.972934 39.805994 39.639402 39.473372 39.307895 39.143167 38.979169 38.816078 38.653861 38.492678 38.332483 38.173418 38.015425 37.858626 37.702954 37.548510 37.395218 37.243161 37.092253 36.942559 36.793987 36.646582 36.500247 36.355010 36.210770 36.067538 35.925210 35.783781 35.643145 35.503284 35.364093 35.225537 35.087514 34.949978 34.812829 34.676010 34.539425 34.403007 34.266667
34.644444 34.809621 34.974885 35.140333 35.306043 35.472118 35.638623 35.805669 35.973305 36.141646 36.310728 36.480667 36.651481 36.823287 36.996088 37.169997 37.344997 37.521201 37.698571 37.877213 38.057070 38.238242 38.420648 38.604381 38.789340 38.975604 39.163052 39.351752 39.541558 39.732529 39.924494 40.117498 40.311349 40.506079 40.701472 40.897546 41.094067 41.291035 41.488198 41.685542 41.882798 42.079938 42.276677 42.472974 42.668533 42.863302 43.056972 43.249484 43.440523 43.630021 43.817660 44.003366 44.186822 44.367952 44.546443 44.722217 44.894968 45.064621 45.230881 45.393677 45.552727 45.707965 45.859126 46.006153 46.148798 46.287011 46.420565 46.549420 46.673369 46.792381 46.906272 47.015018 47.118456 47.216571 47.309222 47.396399 47.477983 47.553969 47.624256 47.688846 47.747654 47.800685 47.847872 47.889220 47.924680 47.954256 47.977913 47.995655 48.007462 48.013336 48.013270 48.007265 47.995328 47.977458 47.953675 47.923977 47.888399 47.846937 47.799642 47.746509 47.687606 47.622930 47.552566 47.476512 47.394873 47.307651 47.214969 47.116837 47.013397 46.904666 46.790809 46.671849 46.547973 46.419213 46.285779 46.147710 46.005237 45.858410 45.707480 45.552504 45.393752 45.231289 45.065401 44.896160 44.723863 44.548588 44.370644 44.190109 44.007300 43.822294 43.635413 43.446731 43.256570 43.064999 42.872337 42.678646 42.484237 42.289163 42.093726 41.897966 41.702175 41.506378 41.310852 41.115610 40.920911 40.726751 40.533372 40.340756 40.149123 39.958441 39.768907 39.580476 39.393323 39.207388 39.022824 38.839558 38.657720 38.477226 38.298183 38.120497 37.944252 37.769345 37.595839 37.423623 37.252740 37.083074 36.914645 36.747335 36.581145 36.415954 36.251746 36.088399 35.925880 35.764069 35.602916 35.442305 35.282172 35.122406 34.962930 34.803638 34.644444
35.022222 35.211177 35.400239 35.589501 35.779081 35.969059 36.159559 36.350648 36.542454 36.735028 36.928502 37.122909 37.318382 37.514934 37.712697 37.911665 38.111966 38.313571 38.516605 38.721015 38.926920 39.134241 39.343088 39.553359 39.765154 39.978343 40.193014 40.409013 40.626413 40.845033 41.064933 41.285906 41.507995 41.730967 41.954850 42.179387 42.404587 42.630171 42.856133 43.082171 43.308261 43.534086 43.759605 43.984483 44.208666 44.431808 44.653841 44.874409 45.093435 45.310557 45.525691 45.738472 45.948812 46.156348 46.360992 46.562386 46.760442 46.954814 47.145417 47.331920 47.514242 47.692071 47.865334 48.033738 48.197220 48.355509 48.508553 48.656104 48.798122 48.934383 49.064856 49.189343 49.307824 49.420125 49.526234 49.626001 49.719422 49.806369 49.886844 49.960741 50.028065 50.088731 50.142746 50.190043 50.230630 50.264459 50.291535 50.311827 50.325340 50.332059 50.331984 50.325117 50.311456 50.291018 50.263799 50.229832 50.189111 50.141685 50.087547 50.026766 49.959335 49.885340 49.804778 49.717754 49.624270 49.524453 49.418309 49.305989 49.187507 49.063038 48.932603 48.796403 48.654469 48.507028 48.354120 48.195997 48.032711 47.864537 47.691537 47.514010 47.332027 47.145906 46.955728 46.761827 46.564291 46.363467 46.159448 45.952592 45.742991 45.531012 45.316743 45.100555 44.882531 44.663041 44.442159 44.220250 43.997380 43.773902 43.549870 43.325625 43.101206 42.876939 42.652848 42.429238 42.206118 41.983772 41.762191 41.541636 41.322082 41.103766 40.886644 40.670929 40.456560 40.243726 40.032349 39.822592 39.614363 39.407798 39.202795 38.999462 38.797686 38.597550 38.398932 38.201891 38.006297 37.812185 37.619420 37.428014 37.237829 37.048856 36.860955 36.674097 36.488143 36.303046 36.118668 35.934945 35.751745 35.568988 35.386549 35.204332 35.022222
35.400000 35.612808 35.825730 36.038892 36.252395 36.466374 36.680914 36.896158 37.112172 37.329105 37.547004 37.766020 37.986180 38.207633 38.430385 38.654584 38.880209 39.107406 39.336127 39.566513 39.798488 40.032184 40.267499 40.504551 40.743212 40.983587 41.225518 41.469095 41.714130 41.960698 42.208582 42.457839 42.708222 42.959769 43.212206 43.465553 43.719507 43.974069 44.228912 44.484016 44.739033 44.993924 45.248322 45.502169 45.755082 46.006990 46.257495 46.506513 46.753638 46.998775 47.241515 47.481757 47.719090 47.953410 48.184311 48.411689 48.635148 48.854586 49.069621 49.280158 49.485832 49.686557 49.881989 50.072051 50.256427 50.435048 50.607625 50.774104 50.934221 51.087935 51.235011 51.375420 51.508954 51.635596 51.755165 51.867654 51.972908 52.070926 52.161580 52.244874 52.320703 52.389074 52.449906 52.503205 52.548909 52.587027 52.617516 52.640380 52.655596 52.663166 52.663083 52.655347 52.639966 52.616939 52.586292 52.548018 52.502164 52.448721 52.387753 52.319253 52.243304 52.159901 52.069150 51.971047 51.865722 51.753179 51.633571 51.506909 51.373375 51.232987 51.085955 50.932310 50.772289 50.605933 50.433511 50.255076 50.070923 49.881118 49.685984 49.485598 49.280307 49.070199 48.855643 48.636735 48.413861 48.187125 47.956927 47.723373 47.486873 47.247532 47.005767 46.761678 46.515683 46.267876 46.018669 45.768146 45.516713 45.264438 45.011716 44.758600 44.505467 44.252354 43.999617 43.747276 43.495665 43.244782 42.994936 42.746109 42.498580 42.252312 42.007557 41.764256 41.522636 41.282618 41.044399 40.807884 40.573240 40.340357 40.109373 39.880164 39.652839 39.427264 39.203517 38.981457 38.761135 38.542401 38.325281 38.109619 37.895418 37.682519 37.470900 37.260403 37.050984 36.842486 36.634846 36.427911 36.221599 36.015764 35.810307 35.605090 35.400000
35.777778 36.014514 36.251385 36.488511 36.726040 36.964074 37.202770 37.442215 37.682569 37.923899 38.166372 38.410029 38.655041 38.901425 39.149348 39.398804 39.649955 39.902768 40.157399 40.413784 40.672073 40.932171 41.194215 41.458080 41.723890 41.991487 42.260980 42.532178 42.805172 43.079739 43.355950 43.633550 43.912590 44.192781 44.474154 44.756390 45.039496 45.323124 45.607261 45.891531 46.175899 46.459965 46.743676 47.026610 47.308693 47.589490 47.868910 48.146505 48.422172 48.695454 48.966239 49.234068 49.498824 49.760050 50.017626 50.271104 50.520366 50.764977 51.004825 51.239493 51.468875 51.692580 51.910512 52.122303 52.327874 52.526884 52.719268 52.904716 53.083176 53.254372 53.418265 53.574611 53.723385 53.864373 53.997562 54.122769 54.239989 54.349070 54.450013 54.542692 54.627114 54.703178 54.770893 54.830181 54.881053 54.923451 54.957383 54.982813 54.999748 55.008168 55.008076 54.999473 54.982357 54.956748 54.922640 54.880071 54.829035 54.769588 54.701722 54.625517 54.540963 54.448165 54.347115 54.237942 54.120644 53.995377 53.862146 53.721137 53.572364 53.416043 53.252199 53.081081 52.902727 52.717418 52.525207 52.326405 52.121081 51.909577 51.691976 51.468650 51.239692 51.005503 50.766187 50.522166 50.273553 50.020790 49.763994 49.503621 49.239789 48.972963 48.703259 48.431145 48.156732 47.880485 47.602505 47.323250 47.042809 46.761626 46.479775 46.197683 45.915407 45.633352 45.351555 45.070397 44.789893 44.510398 44.231904 43.954738 43.678869 43.404594 43.131858 42.860927 42.591726 42.324488 42.059119 41.795817 41.534470 41.275245 41.018013 40.762908 40.509788 40.258754 40.009653 39.762557 39.517300 39.273926 39.032263 38.792326 38.553939 38.317090 38.081601 37.847435 37.614415 37.382481 37.151460 36.921268 36.691740 36.462773 36.234208 36.005925 35.777778
36.155556 36.416309 36.677205 36.938399 37.200017 37.462226 37.725132 37.988913 38.253652 38.519533 38.786617 39.055089 39.324984 39.596490 39.869614 40.144539 40.421243 40.699905 40.980471 41.263112 41.547742 41.834519 42.123324 42.414302 42.707297 43.002440 43.299538 43.598703 43.899708 44.202642 44.507242 44.813576 45.121345 45.430592 45.740984 46.052540 46.364893 46.678037 46.991574 47.305474 47.619311 47.933031 48.246182 48.558688 48.870078 49.180257 49.488734 49.795400 50.099753 50.401671 50.700646 50.996548 51.288869 51.577473 51.861860 52.141894 52.417087 52.687306 52.952083 53.211291 53.464485 53.711551 53.952070 54.185942 54.412779 54.632496 54.844741 55.049444 55.246286 55.435216 55.615951 55.788454 55.952478 56.108002 56.254811 56.392896 56.522075 56.642350 56.753569 56.855740 56.948740 57.032579 57.107163 57.172504 57.228529 57.275249 57.312616 57.340638 57.359285 57.368564 57.368464 57.358986 57.340141 57.311924 57.274366 57.227459 57.171254 57.105741 57.030994 56.947000 56.853858 56.751557 56.640222 56.519846 56.390584 56.252434 56.105581 55.950035 55.786013 55.613537 55.432859 55.244015 55.047292 54.842742 54.630689 54.411200 54.184636 53.951081 53.710928 53.464277 53.211553 52.952870 52.688681 52.419110 52.144633 51.865384 51.581857 51.294189 51.002887 50.708088 50.410304 50.109670 49.806698 49.501512 49.194622 48.886138 48.576557 48.265975 47.954872 47.643324 47.331791 47.020326 46.709365 46.398938 46.089450 45.780908 45.473687 45.167767 44.863491 44.560813 44.260041 43.961106 43.664280 43.369470 43.076914 42.786496 42.498417 42.212544 41.929041 41.647757 41.368821 41.092070 40.817596 40.545225 40.275016 40.006784 39.740559 39.476150 39.213554 38.952578 38.693191 38.435198 38.178544 37.923034 37.668588 37.415017 37.162219 36.910014 36.658276 36.406837 36.155556
36.533333 36.818193 37.103217 37.388554 37.674381 37.960827 38.248082 38.536251 38.825532 39.116007 39.407878 39.701201 39.996179 40.292838 40.591382 40.891804 41.194304 41.498842 41.805610 42.114535 42.425796 42.739283 43.055164 43.373290 43.693812 44.016542 44.341612 44.668796 44.998202 45.329565 45.662970 45.998111 46.335049 46.673437 47.013311 47.354286 47.696369 48.039142 48.382582 48.726238 49.070062 49.413572 49.756694 50.098922 50.440157 50.779873 51.117952 51.453850 51.787435 52.118152 52.445856 52.769992 53.090406 53.406546 53.718257 54.024996 54.326611 54.622577 54.912747 55.196619 55.474060 55.744594 56.008102 56.264143 56.512614 56.753110 56.985546 57.209555 57.425073 57.631771 57.829604 58.018284 58.197780 58.367843 58.528460 58.679417 58.820713 58.952169 59.073792 59.185436 59.287115 59.378712 59.460242 59.531617 59.592851 59.643881 59.684718 59.715322 59.735701 59.745835 59.745727 59.735378 59.714785 59.683971 59.642927 59.591697 59.530268 59.458708 59.377000 59.285238 59.183405 59.071621 58.949873 58.818309 58.676925 58.525899 58.365235 58.195149 58.015657 57.827010 57.629239 57.422636 57.207249 56.983409 56.751181 56.510938 56.262765 56.007072 55.743962 55.473882 55.196954 54.913657 54.624126 54.328870 54.028036 53.722155 53.411382 53.096265 52.776961 52.454029 52.127624 51.798309 51.466230 51.131950 50.795601 50.457736 50.118472 49.778347 49.437457 49.096319 48.755007 48.414011 48.073380 47.733575 47.394616 47.056933 46.720518 46.385764 46.052635 45.721487 45.392258 45.065264 44.740416 44.417991 44.097876 43.780307 43.465150 43.152601 42.842505 42.535020 42.229973 41.927484 41.627366 41.329701 41.034292 40.741184 40.450173 40.161269 39.874262 39.589133 39.305667 39.023815 38.743364 38.464237 38.186225 37.909224 37.633034 37.357527 37.082511 36.807840 36.533333
36.911111 37.220179 37.529419 37.839017 38.149126 38.459947 38.771610 39.084325 39.398198 39.713446 40.030147 40.348521 40.668616 40.990653 41.314646 41.640815 41.969138 42.299827 42.632825 42.968333 43.306256 43.646781 43.989773 44.335402 44.683491 45.034192 45.387284 45.742896 46.100765 46.460994 46.823277 47.187690 47.553883 47.921903 48.291360 48.662269 49.034199 49.407137 49.780612 50.154581 50.528538 50.902411 51.275664 51.648197 52.019449 52.389295 52.757153 53.122880 53.485877 53.845987 54.202603 54.555558 54.904245 55.248490 55.587697 55.921691 56.249889 56.572123 56.887834 57.196863 57.498679 57.793139 58.079746 58.358375 58.628568 58.890220 59.142915 59.386568 59.620808 59.845572 60.060531 60.265643 60.460622 60.645445 60.819867 60.983880 61.137278 61.280066 61.412073 61.533313 61.643648 61.743097 61.831551 61.909030 61.975455 62.030842 62.075136 62.108351 62.130454 62.141453 62.141337 62.130107 62.107776 62.074335 62.029820 61.974218 61.907586 61.829907 61.741264 61.641638 61.531139 61.409750 61.277610 61.134707 60.981215 60.817129 60.642659 60.457813 60.262840 60.057764 59.842875 59.618216 59.384120 59.140649 58.888183 58.626805 58.356937 58.078684 57.792511 57.498543 57.197284 56.888878 56.573862 56.252395 55.925045 55.591980 55.253792 54.910653 54.563171 54.211520 53.856313 53.497721 53.136357 52.772381 52.406400 52.038557 51.669445 51.299187 50.928357 50.557051 50.185819 49.814731 49.444304 49.074579 48.706038 48.338694 47.972989 47.608904 47.246843 46.886756 46.529003 46.173506 45.820583 45.470126 45.122411 44.777303 44.435034 44.095448 43.758734 43.424713 43.093534 42.765001 42.439220 42.115982 41.795354 41.477116 41.161297 40.847670 40.536228 40.226739 39.919163 39.613268 39.308983 39.006077 38.704451 38.403879 38.104236 37.805306 37.506938 37.208930 36.911111
37.288889 37.622264 37.955835 38.289779 38.624306 38.959571 39.295799 39.633117 39.971760 40.311828 40.653560 40.997024 41.342462 41.689910 42.039607 42.391551 42.745976 43.102845 43.462379 43.824501 44.189421 44.557018 44.927485 45.300657 45.676709 46.055428 46.436967 46.821067 47.207854 47.597022 47.988668 48.382440 48.778403 49.176159 49.575741 49.976704 50.379050 50.782290 51.186391 51.590825 51.995527 52.399933 52.803944 53.206966 53.608873 54.009043 54.407326 54.803082 55.196139 55.585844 55.972013 56.353989 56.731577 57.104126 57.471437 57.832871 58.188236 58.536911 58.878714 59.213053 59.539760 59.858278 60.168458 60.469785 60.762131 61.045025 61.318364 61.581723 61.835025 62.077894 62.310274 62.531838 62.742553 62.942137 63.130577 63.307634 63.473311 63.627410 63.769944 63.900753 64.019857 64.127130 64.222594 64.306153 64.377829 64.437553 64.485343 64.521156 64.545003 64.556862 64.556739 64.544634 64.520544 64.484492 64.436466 64.376513 64.304616 64.220846 64.125181 64.017721 63.898442 63.767476 63.624801 63.470581 63.304804 63.127672 62.939181 62.739575 62.528868 62.307346 62.075042 61.832289 61.579143 61.315983 61.042891 60.760294 60.468298 60.167379 59.857666 59.539680 59.213573 58.879907 58.538851 58.191005 57.836553 57.476121 57.109905 56.738552 56.362259 55.981690 55.597037 55.208969 54.817669 54.423802 54.027539 53.629529 53.229924 52.829357 52.427951 52.026316 51.624546 51.223218 50.822397 50.422622 50.023925 49.626806 49.231263 48.837753 48.446238 48.057132 47.670364 47.286300 46.904839 46.526299 46.150551 45.777864 45.408082 45.041429 44.677724 44.317145 43.959490 43.604893 43.253135 42.904306 42.558174 42.214787 41.873902 41.535530 41.199420 40.865545 40.533652 40.203681 39.875377 39.548649 39.223247 38.899048 38.575813 38.253390 37.931551 37.610122 37.288889
37.666667 38.024462 38.382460 38.740880 39.099904 39.459767 39.820624 40.182722 40.546188 40.911276 41.278082 41.646863 42.017680 42.390793 42.766222 43.144224 43.524780 43.908139 44.294239 44.683316 45.075265 45.470305 45.868286 46.269406 46.673466 47.080641 47.490684 47.903742 48.319517 48.738127 49.159222 49.582887 50.008723 50.436780 50.866608 51.298222 51.731123 52.165289 52.600175 53.035724 53.471348 53.906954 54.341917 54.776112 55.208882 55.640071 56.068997 56.495480 56.918821 57.338819 57.754767 58.166451 58.573163 58.974683 59.370312 59.759833 60.142563 60.518293 60.886369 61.246594 61.598350 61.941459 62.275346 62.599857 62.914462 63.219036 63.513099 63.796552 64.068969 64.330280 64.580111 64.818417 65.044876 65.259467 65.461916 65.652222 65.830156 65.995732 66.148763 66.289273 66.417113 66.532311 66.634753 66.724466 66.801366 66.865479 66.916746 66.955187 66.980767 66.993497 66.993367 66.980377 66.954540 66.915846 66.864330 66.799976 66.722842 66.632905 66.530252 66.414855 66.286832 66.146156 65.992977 65.827274 65.649236 65.458852 65.256352 65.041740 64.815293 64.577033 64.327287 64.066100 63.793852 63.510614 63.216818 62.912564 62.598336 62.274262 61.940878 61.598339 61.247228 60.887723 60.520451 60.145608 59.763858 59.375411 58.980957 58.580716 58.175395 57.765216 57.350897 56.932650 56.511196 56.086734 55.659974 55.231099 54.800799 54.369232 53.937064 53.504424 53.071946 52.639724 52.208357 51.777902 51.348916 50.921420 50.495925 50.072415 49.651353 49.232685 48.816825 48.403683 47.993624 47.586524 47.182695 46.781984 46.384653 45.990520 45.599797 45.212279 44.828128 44.447119 44.069366 43.694628 43.322975 42.954150 42.588181 42.224803 41.864002 41.505508 41.149269 40.795013 40.442653 40.091920 39.742693 39.394708 39.047817 38.701765 38.356376 38.011411 37.666667