<?xml version="1.0"?>
<VTKFile type="ImageData" version="0.1" byte_order="LittleEndian">
  <ImageData WholeExtent="0 180 0 180 0 0" Origin="0.0 0.0 0.0" Spacing="0.05 0.05 1">
    <Piece Extent="0 180 0 180 0 0">
      <PointData Scalars="Temperature">
        <DataArray type="Float32" Name="Temperature" format="ascii">
32.000000 32.000000 32.000000 32.000000 32.000000 32.000000 32.000000 32.000000 32.000000 32.000000 32.000000 32.000000 32.000000 32.000000 32.000000 32.000000 32.000000 32.000000 32.000000 32.000000 32.000000 32.000000 32.000000 32.000000 32.000000 32.000000 32.000000 32.000000 32.000000 32.000000 32.000000 32.000000 32.000000 32.000000 32.000000 32.000000 32.000000 32.000000 32.000000 32.000000 32.000000 32.000000 32.000000 32.000000 32.000000 32.000000 32.000000 32.000000 32.000000 32.000000 32.000000 32.000000 32.000000 32.000000 32.000000 32.000000 32.000000 32.000000 32.000000 32.000000 32.000000 32.000000 32.000000 32.000000 32.000000 32.000000 32.000000 32.000000 32.000000 32.000000 32.000000 32.000000 32.000000 32.000000 32.000000 32.000000 32.000000 32.000000 32.000000 32.000000 32.000000 32.000000 32.000000 32.000000 32.000000 32.000000 32.000000 32.000000 32.000000 32.000000 32.000000 32.000000 32.000000 32.000000 32.000000 32.000000 32.000000 32.000000 32.000000 32.000000 32.000000 32.000000 32.000000 32.000000 32.000000 32.000000 32.000000 32.000000 32.000000 32.000000 32.000000 32.000000 32.000000 32.000000 32.000000 32.000000 32.000000 32.000000 32.000000 32.000000 32.000000 32.000000 32.000000 32.000000 32.000000 32.000000 32.000000 32.000000 32.000000 32.000000 32.000000 32.000000 32.000000 32.000000 32.000000 32.000000 32.000000 32.000000 32.000000 32.000000 32.000000 32.000000 32.000000 32.000000 32.000000 32.000000 32.000000 32.000000 32.000000 32.000000 32.000000 32.000000 32.000000 32.000000 32.000000 32.000000 32.000000 32.000000 32.000000 32.000000 32.000000 32.000000 32.000000 32.000000 32.000000 32.000000 32.000000 32.000000 32.000000 32.000000 32.000000 32.000000 32.000000 32.000000 32.000000 32.000000 32.000000 32.000000 32.000000 32.000000 32.000000
32.377778 32.376555 32.375364 32.374242 32.373214 32.372324 32.371590 32.371061 32.370747 32.370702 32.370930 32.371489 32.372374 32.373648 32.375299 32.377391 32.379905 32.382908 32.386373 32.390369 32.394861 32.399919 32.405500 32.411676 32.418394 32.425728 32.433616 32.442132 32.451206 32.460913 32.471172 32.482060 32.493487 32.505529 32.518088 32.531239 32.544878 32.559077 32.573725 32.588894 32.604465 32.620510 32.636902 32.653714 32.670813 32.688270 32.705949 32.723918 32.742039 32.760379 32.778799 32.797362 32.815929 32.834564 32.853127 32.871680 32.890085 32.908404 32.926502 32.944438 32.962083 32.979495 32.996547 33.013299 33.029630 33.045597 33.061085 33.076151 33.090689 33.104750 33.118239 33.131204 33.143558 33.155347 33.166492 33.177036 33.186909 33.196150 33.204698 33.212589 33.219770 33.226272 33.232053 33.237136 33.241489 33.245132 33.248040 33.250226 33.251676 33.252397 33.252384 33.251636 33.250158 33.247944 33.245008 33.241336 33.236953 33.231839 33.226026 33.219491 33.212275 33.204348 33.195761 33.186480 33.176566 33.165977 33.154786 33.142948 33.130543 33.117523 33.103978 33.089856 33.075255 33.060123 33.044565 33.028525 33.012118 32.995286 32.978150 32.960651 32.942915 32.924883 32.906687 32.888266 32.869755 32.851092 32.832416 32.813664 32.794977 32.776290 32.757744 32.739274 32.721020 32.702915 32.685099 32.667503 32.650262 32.633308 32.616772 32.600583 32.584868 32.569555 32.554764 32.540423 32.526645 32.513356 32.500663 32.488491 32.476939 32.465931 32.455558 32.445744 32.436572 32.427965 32.419997 32.412593 32.405817 32.399594 32.393981 32.388904 32.384410 32.380427 32.376993 32.374040 32.371595 32.369593 32.368055 32.366915 32.366188 32.365813 32.365794 32.366074 32.366651 32.367471 32.368527 32.369767 32.371176 32.372710 32.374346 32.376045 32.377778
32.755556 32.753132 32.750778 32.748550 32.746529 32.744759 32.743332 32.742278 32.741699 32.741610 32.742121 32.743235 32.745069 32.747609 32.750981 32.755154 32.760260 32.766252 32.773268 32.781244 32.790322 32.800420 32.811684 32.824015 32.837561 32.852206 32.868100 32.885108 32.903383 32.922770 32.943424 32.965172 32.988169 33.012225 33.037492 33.063767 33.091200 33.119571 33.149028 33.179338 33.210647 33.242708 33.275664 33.309258 33.343631 33.378515 33.414049 33.449959 33.486379 33.523030 33.560046 33.597144 33.634453 33.671694 33.708991 33.746067 33.783046 33.819654 33.856013 33.891856 33.927302 33.962094 33.996350 34.029822 34.062625 34.094526 34.125637 34.155737 34.184935 34.213027 34.240117 34.266018 34.290828 34.314377 34.336758 34.357820 34.377645 34.396103 34.413269 34.429029 34.443448 34.456434 34.468041 34.478193 34.486934 34.494208 34.500047 34.504413 34.507325 34.508764 34.508737 34.507243 34.504277 34.499855 34.493960 34.486627 34.477826 34.467612 34.455942 34.442890 34.428401 34.412568 34.395326 34.376789 34.356879 34.335729 34.313256 34.289608 34.264696 34.238686 34.211482 34.183270 34.153945 34.123712 34.092463 34.060416 34.027460 33.993827 33.959404 33.924437 33.888809 33.852777 33.816221 33.779409 33.742218 33.704922 33.667398 33.629924 33.592374 33.555029 33.517760 33.480848 33.444163 33.407983 33.372174 33.337011 33.302356 33.268476 33.235233 33.202884 33.171287 33.140689 33.110946 33.082292 33.054580 33.028030 33.002495 32.978179 32.954932 32.932944 32.912063 32.892463 32.873990 32.856802 32.840747 32.825962 32.812299 32.799876 32.788547 32.778413 32.769330 32.761382 32.754429 32.748537 32.743570 32.739578 32.736430 32.734161 32.732644 32.731898 32.731804 32.732365 32.733471 32.735110 32.737178 32.739651 32.742434 32.745490 32.748733 32.752113 32.755556
33.133333 33.129758 33.126279 33.123007 33.120019 33.117445 33.115341 33.113852 33.113013 33.112982 33.113775 33.115561 33.118333 33.122272 33.127346 33.133749 33.141422 33.150568 33.161104 33.173240 33.186867 33.202201 33.219107 33.237806 33.258136 33.280322 33.304174 33.329920 33.357344 33.386675 33.417669 33.450556 33.485067 33.521430 33.559350 33.599054 33.640225 33.683085 33.727294 33.773074 33.820063 33.868478 33.917940 33.968663 34.020252 34.072915 34.126247 34.180450 34.235111 34.290429 34.345982 34.401967 34.457960 34.514154 34.570128 34.626068 34.681561 34.736790 34.791348 34.845418 34.898604 34.951084 35.002479 35.052964 35.102176 35.150287 35.196955 35.242346 35.286142 35.328501 35.369131 35.408182 35.445389 35.480893 35.514454 35.546204 35.575931 35.603755 35.629491 35.653246 35.674865 35.694437 35.711836 35.727137 35.740241 35.751204 35.759957 35.766537 35.770901 35.773071 35.773030 35.770779 35.766332 35.759669 35.750832 35.739781 35.726588 35.711195 35.693699 35.674027 35.652305 35.628441 35.602590 35.574647 35.544794 35.512912 35.479211 35.443561 35.406199 35.366985 35.326184 35.283645 35.239659 35.194070 35.147193 35.098863 35.049421 34.998697 34.947050 34.894308 34.840849 34.786496 34.731641 34.676106 34.620295 34.564025 34.507712 34.451167 34.394813 34.338457 34.282524 34.226817 34.171758 34.117149 34.063405 34.010324 33.958312 33.907161 33.857268 33.808421 33.760999 33.714788 33.670150 33.626865 33.585276 33.545160 33.506839 33.470087 33.435201 33.401955 33.370620 33.340970 33.313250 33.287234 33.263141 33.240746 33.220242 33.201405 33.184403 33.169015 33.155382 33.143288 33.132848 33.123853 33.116391 33.110261 33.105526 33.101992 33.099700 33.098464 33.098303 33.099042 33.100675 33.103041 33.106113 33.109741 33.113879 33.118392 33.123212 33.128221 33.133333
33.511111 33.506450 33.501928 33.497660 33.493808 33.490461 33.487803 33.485895 33.484939 33.484971 33.486209 33.488658 33.492554 33.497871 33.504858 33.513457 33.523931 33.536189 33.550503 33.566748 33.585207 33.605719 33.628575 33.653578 33.681024 33.710680 33.742847 33.777256 33.814212 33.853407 33.895147 33.939091 33.985543 34.034129 34.085150 34.138199 34.193575 34.250839 34.310286 34.371450 34.434620 34.499303 34.565785 34.633550 34.702877 34.773233 34.844891 34.917303 34.990736 35.064633 35.139255 35.214039 35.289243 35.364302 35.439469 35.514185 35.588697 35.662456 35.735704 35.807908 35.879305 35.949380 36.018364 36.085766 36.151812 36.216037 36.278662 36.339248 36.398011 36.454544 36.509052 36.561164 36.611074 36.658445 36.703460 36.745818 36.785686 36.822802 36.857315 36.889000 36.917988 36.944092 36.967422 36.987827 37.005396 37.020016 37.031750 37.040525 37.046377 37.049269 37.049215 37.046214 37.040252 37.031367 37.019519 37.004784 36.987096 36.966567 36.943109 36.916872 36.887745 36.855915 36.821250 36.783975 36.743939 36.701405 36.656204 36.608637 36.558521 36.506192 36.451456 36.394683 36.335668 36.274816 36.211914 36.147397 36.081044 36.013322 35.944003 35.873580 35.801819 35.729236 35.655593 35.581425 35.506489 35.431335 35.355715 35.280188 35.204503 35.129225 35.054096 34.979680 34.905716 34.832764 34.760557 34.689643 34.619751 34.551416 34.484361 34.419101 34.355355 34.293617 34.233597 34.175768 34.119834 34.066238 34.014682 33.965578 33.918625 33.874204 33.832010 33.792390 33.755041 33.720274 33.687786 33.657853 33.630175 33.604992 33.582008 33.561427 33.542960 33.526775 33.512589 33.500538 33.490346 33.482115 33.475580 33.470810 33.467553 33.465846 33.465450 33.466371 33.468385 33.471471 33.475421 33.480183 33.485570 33.491503 33.497814 33.504399 33.511111
33.888889 33.883240 33.877750 33.872610 33.867946 33.863976 33.860795 33.858645 33.857586 33.857884 33.859562 33.862908 33.867907 33.874865 33.883729 33.894821 33.908046 33.923742 33.941772 33.962487 33.985705 34.011788 34.040511 34.072243 34.106714 34.144300 34.184686 34.228250 34.274633 34.324217 34.376596 34.432151 34.490436 34.551828 34.615838 34.682843 34.752311 34.824614 34.899186 34.976390 35.055627 35.137254 35.220642 35.306139 35.393091 35.481841 35.571711 35.663038 35.755129 35.848313 35.941889 36.036178 36.130475 36.225095 36.319338 36.413511 36.506923 36.599876 36.691693 36.782672 36.872157 36.960438 37.046887 37.131788 37.214543 37.295430 37.373884 37.450176 37.523781 37.594957 37.663222 37.728823 37.791318 37.850943 37.907300 37.960607 38.010513 38.057216 38.100413 38.140279 38.176557 38.209397 38.238590 38.264259 38.286242 38.304632 38.319314 38.330350 38.337672 38.341311 38.341243 38.337469 38.330010 38.318835 38.304012 38.285477 38.263345 38.237522 38.208169 38.175163 38.138712 38.098665 38.055278 38.008375 37.958260 37.904732 37.848143 37.788274 37.725522 37.659650 37.591100 37.519624 37.445704 37.369080 37.290278 37.209026 37.125889 37.040588 36.953721 36.865003 36.775063 36.683611 36.591301 36.497836 36.403895 36.309173 36.214365 36.119160 36.024262 35.929355 35.835146 35.741313 35.648559 35.556557 35.466000 35.376553 35.288896 35.202686 35.118583 35.036235 34.956279 34.878356 34.803071 34.730060 34.659896 34.592208 34.527531 34.465491 34.406583 34.350431 34.297487 34.247374 34.200501 34.156489 34.115706 34.077775 34.043017 34.011060 33.982182 33.956014 33.932791 33.912153 33.894290 33.878851 33.865986 33.855356 33.847066 33.840793 33.836602 33.834185 33.833570 33.834464 33.836860 33.840484 33.845293 33.851035 33.857632 33.864858 33.872600 33.880658 33.888889
34.266667 34.260137 34.253818 34.247884 34.242579 34.238038 34.234537 34.232172 34.231247 34.231815 34.234208 34.238433 34.244846 34.253409 34.264498 34.278027 34.294392 34.313455 34.335631 34.360729 34.389177 34.420732 34.455834 34.494187 34.536236 34.581634 34.630831 34.683425 34.739871 34.799711 34.863403 34.930434 35.001262 35.075322 35.153068 35.233887 35.318226 35.405427 35.495930 35.589034 35.685170 35.783600 35.884746 35.987835 36.093281 36.200282 36.309245 36.419345 36.530979 36.643308 36.756720 36.870370 36.984636 37.098674 37.212853 37.326337 37.439489 37.551486 37.662687 37.772289 37.880644 37.986979 38.091638 38.193883 38.294051 38.391442 38.486386 38.578228 38.667285 38.752951 38.835532 38.914471 38.990059 39.061793 39.129944 39.194066 39.254407 39.310575 39.362796 39.410733 39.454584 39.494068 39.529351 39.560210 39.586777 39.608883 39.626625 39.639891 39.648739 39.653113 39.653032 39.648495 39.639483 39.626051 39.608140 39.585860 39.559115 39.528071 39.492597 39.452913 39.408855 39.360700 39.308252 39.251844 39.191252 39.126866 39.058437 38.986409 38.910513 38.831249 38.748326 38.662300 38.572864 38.480625 38.385264 38.287435 38.186808 38.084084 37.978923 37.872064 37.763163 37.652993 37.541201 37.428590 37.314802 37.200661 37.085802 36.971064 36.856076 36.741686 36.627513 36.514406 36.401977 36.291067 36.181280 36.073443 35.967151 35.863208 35.761202 35.661910 35.564910 35.470945 35.379586 35.291538 35.206364 35.124726 35.046181 34.971347 34.899772 34.832027 34.767659 34.707186 34.650153 34.597027 34.547353 34.501546 34.459154 34.420538 34.385250 34.353600 34.325148 34.300149 34.278176 34.259432 34.243501 34.230536 34.220138 34.212409 34.206969 34.203873 34.202760 34.203638 34.206171 34.210323 34.215781 34.222469 34.230101 34.238559 34.247587 34.257032 34.266667
34.644444 34.637181 34.630144 34.623600 34.617730 34.612840 34.609067 34.606750 34.605977 34.607121 34.610219 34.615673 34.623467 34.634029 34.647287 34.663695 34.683123 34.706044 34.732270 34.762290 34.795856 34.833473 34.874828 34.920439 34.969930 35.023826 35.081689 35.144048 35.210403 35.281284 35.356127 35.435464 35.518669 35.606271 35.697584 35.793132 35.892173 35.995223 36.101488 36.211475 36.324342 36.440586 36.559321 36.681035 36.804807 36.931110 37.058996 37.188929 37.319936 37.452472 37.585551 37.719617 37.853680 37.988176 38.122119 38.255934 38.388650 38.520685 38.651090 38.780273 38.907316 39.032620 39.155304 39.275762 39.393155 39.507869 39.619114 39.727266 39.831589 39.932446 40.029160 40.122076 40.210579 40.294996 40.374774 40.450217 40.520837 40.586911 40.648016 40.704397 40.755699 40.802131 40.843403 40.879689 40.910761 40.936752 40.957502 40.973099 40.983446 40.988589 40.988494 40.983162 40.972624 40.956833 40.935886 40.909693 40.878413 40.841912 40.800417 40.753752 40.702209 40.645574 40.584204 40.517851 40.446938 40.371187 40.291084 40.206326 40.117463 40.024168 39.927055 39.825779 39.721014 39.612399 39.500667 39.385442 39.267514 39.146497 39.023228 38.897312 38.769633 38.639786 38.508693 38.375942 38.242484 38.107901 37.973166 37.837853 37.702948 37.568018 37.434052 37.300609 37.168675 37.037798 36.908951 36.781673 36.656915 36.534206 36.414468 36.297218 36.183345 36.072354 35.965093 35.861055 35.761042 35.664540 35.572297 35.483793 35.399719 35.319551 35.243922 35.172304 35.105270 35.042291 34.983880 34.929507 34.879624 34.833707 34.792143 34.754418 34.720858 34.690956 34.664978 34.642433 34.623524 34.607778 34.595341 34.585756 34.579115 34.574984 34.573397 34.573948 34.576618 34.581027 34.587109 34.594512 34.603122 34.612621 34.622850 34.633525 34.644444
35.022222 35.014374 35.006810 34.999765 34.993566 34.988400 34.984635 34.982403 34.982113 34.983837 34.988020 34.994677 35.004284 35.016792 35.032707 35.051915 35.074948 35.101625 35.132499 35.167320 35.206660 35.250199 35.298521 35.351236 35.408940 35.471169 35.538525 35.610474 35.687621 35.769359 35.856294 35.947747 36.044322 36.145272 36.251194 36.361275 36.476105 36.594807 36.717962 36.844635 36.975396 37.109257 37.246776 37.386919 37.530231 37.675641 37.823681 37.973251 38.124868 38.277414 38.431394 38.585679 38.740764 38.895518 39.050428 39.204372 39.357827 39.509694 39.660439 39.808994 39.955817 40.099877 40.241627 40.380080 40.515681 40.647498 40.775963 40.900207 41.020646 41.136477 41.248102 41.354785 41.456907 41.553805 41.645837 41.732412 41.813861 41.889666 41.960126 42.024798 42.083943 42.137193 42.184768 42.226374 42.262187 42.291987 42.315900 42.333781 42.345706 42.351602 42.351494 42.345382 42.333239 42.315137 42.290999 42.260968 42.224918 42.183066 42.135237 42.081722 42.022301 41.957340 41.886577 41.810454 41.728670 41.641743 41.549340 41.452052 41.349519 41.242404 41.130323 41.014013 40.893069 40.768296 40.639275 40.506874 40.370663 40.231569 40.089151 39.944393 39.796842 39.647530 39.495997 39.343313 39.189010 39.034189 38.878374 38.722686 38.566640 38.411367 38.256374 38.102792 37.950115 37.799467 37.650330 37.503806 37.359367 37.218088 37.079424 36.944415 36.812505 36.684687 36.560393 36.440566 36.324626 36.213458 36.106474 36.004497 35.906930 35.814532 35.726701 35.644127 35.566205 35.493556 35.425574 35.362809 35.304660 35.251605 35.203048 35.159397 35.120067 35.085395 35.054809 35.028576 35.006142 34.987708 34.972738 34.961367 34.953086 34.947963 34.945516 34.945753 34.948223 34.952875 34.959289 34.967360 34.976705 34.987163 34.998390 35.010177 35.022222
35.400000 35.391760 35.383814 35.376510 35.370085 35.364935 35.361241 35.359441 35.359655 35.362363 35.367619 35.375941 35.387314 35.402291 35.420785 35.443379 35.469913 35.500996 35.536389 35.576726 35.621690 35.671930 35.727052 35.787717 35.853450 35.924923 36.001577 36.084092 36.171826 36.265460 36.364273 36.468944 36.578670 36.694128 36.814437 36.940266 37.070661 37.206280 37.346101 37.490769 37.639200 37.792025 37.948104 38.108052 38.270683 38.436597 38.604571 38.775186 38.947194 39.121162 39.295822 39.471730 39.647612 39.824011 39.999661 40.175092 40.349055 40.522074 40.692925 40.862123 41.028486 41.192520 41.353089 41.510693 41.664252 41.814256 41.959691 42.101033 42.237341 42.369073 42.495365 42.616656 42.732161 42.842296 42.946358 43.044733 43.136802 43.222918 43.302544 43.375996 43.442820 43.503288 43.557029 43.604268 43.644716 43.678546 43.705551 43.725849 43.739316 43.746009 43.745888 43.738952 43.725241 43.704695 43.677436 43.643348 43.602633 43.555119 43.501091 43.440326 43.373192 43.299415 43.219448 43.132975 43.040530 42.941759 42.837281 42.726707 42.610740 42.488962 42.362158 42.229887 42.093013 41.951075 41.805015 41.654355 41.500108 41.341785 41.180464 41.015645 40.848464 40.678413 40.506676 40.332738 40.157822 39.981405 39.804737 39.627287 39.450324 39.273305 39.097506 38.922372 38.749175 38.577345 38.408139 38.240973 38.077075 37.915849 37.758484 37.604369 37.454647 37.308692 37.167593 37.030709 36.899069 36.772018 36.650519 36.533907 36.423071 36.317340 36.217526 36.122952 36.034355 35.951055 35.873707 35.801634 35.735412 35.674367 35.618996 35.568634 35.523696 35.483533 35.448480 35.417905 35.392066 35.370350 35.352943 35.339255 35.329398 35.322813 35.319541 35.319053 35.321324 35.325861 35.332575 35.341010 35.351015 35.362179 35.374292 35.386987 35.400000
35.777778 35.769334 35.761250 35.753824 35.747471 35.742428 35.739161 35.737839 35.738978 35.742673 35.749486 35.759438 35.773129 35.790504 35.812198 35.838075 35.868801 35.904157 35.944834 35.990528 36.041954 36.098716 36.161548 36.229965 36.304712 36.385215 36.472226 36.565079 36.664532 36.769827 36.881719 36.999364 37.123512 37.253229 37.389260 37.530586 37.677939 37.830223 37.988157 38.150569 38.318163 38.489702 38.665872 38.845378 39.028888 39.215060 39.404544 39.595962 39.789945 39.985090 40.182013 40.379298 40.577546 40.775341 40.973273 41.169938 41.365915 41.559826 41.752239 41.941817 42.129118 42.312853 42.493574 42.670050 42.842824 43.010735 43.174313 43.332473 43.485731 43.633086 43.775035 43.910664 44.040446 44.163558 44.280445 44.390375 44.493760 44.589962 44.679351 44.761382 44.836382 44.903896 44.964201 45.016934 45.062315 45.100074 45.130370 45.153023 45.168130 45.175600 45.175466 45.167727 45.152349 45.129420 45.098844 45.060798 45.015121 44.962082 44.901461 44.833617 44.758273 44.675881 44.586114 44.489515 44.385713 44.275344 44.157994 44.034396 43.904101 43.767932 43.625414 43.477461 43.323573 43.164751 43.000479 42.831840 42.658303 42.481027 42.299471 42.114864 41.926653 41.736130 41.542732 41.347800 41.150765 40.953005 40.753941 40.554979 40.355530 40.157012 39.958823 39.762384 39.567079 39.374314 39.183460 38.995898 38.810982 38.630058 38.452460 38.279490 38.110463 37.946623 37.787271 37.633585 37.484850 37.342172 37.204821 37.073828 36.948449 36.829634 36.716631 36.610302 36.509894 36.416178 36.328400 36.247244 36.171957 36.103134 36.040030 35.983150 35.931761 35.886279 35.845989 35.811220 35.781275 35.756401 35.735926 35.720013 35.708021 35.700032 35.695439 35.694249 35.695890 35.700296 35.706939 35.715680 35.726036 35.737803 35.750546 35.763999 35.777778
36.155556 36.147145 36.139101 36.131851 36.125695 36.121121 36.118355 36.117940 36.120027 36.125210 36.133559 36.145714 36.161662 36.182084 36.206878 36.236764 36.271549 36.311983 36.357782 36.409720 36.467417 36.531669 36.601999 36.679218 36.762748 36.853413 36.950534 37.054941 37.165852 37.284101 37.408806 37.540796 37.679091 37.824512 37.975987 38.134323 38.298357 38.468882 38.644650 38.826438 39.012919 39.204850 39.400837 39.601617 39.805735 40.013907 40.224634 40.438611 40.654302 40.872385 41.091302 41.311714 41.532058 41.752977 41.972916 42.192506 42.410215 42.626662 42.840351 43.051891 43.259835 43.464786 43.665355 43.862138 44.053818 44.240979 44.422388 44.598614 44.768513 44.932637 45.089937 45.240943 45.384705 45.521725 45.651154 45.773462 45.887900 45.994899 46.093813 46.185025 46.267992 46.343044 46.409738 46.468347 46.518527 46.560487 46.593982 46.619154 46.635855 46.644156 46.644009 46.635413 46.618414 46.592940 46.559138 46.516863 46.466358 46.407414 46.340372 46.264957 46.181612 46.090004 45.990676 45.883241 45.768344 45.645554 45.515618 45.378062 45.233737 45.082137 44.924212 44.759430 44.588839 44.411886 44.229713 44.041751 43.849231 43.651570 43.450082 43.244173 43.035229 42.822648 42.607877 42.390307 42.171434 41.950639 41.729456 41.507254 41.285590 41.063822 40.843513 40.624007 40.406863 40.191405 39.979173 39.769473 39.563810 39.361471 39.163916 38.970411 38.782357 38.599001 38.421677 38.249611 38.084063 37.924242 37.771322 37.624499 37.484859 37.351584 37.225668 37.106286 36.994334 36.888984 36.791033 36.699654 36.615547 36.537888 36.467278 36.402904 36.345269 36.293575 36.248228 36.208450 36.174553 36.145784 36.122363 36.103566 36.089524 36.079548 36.073683 36.071278 36.072295 36.076129 36.082661 36.091332 36.101952 36.114010 36.127245 36.141204 36.155556
36.533333 36.525182 36.517468 36.510559 36.504960 36.500960 36.499127 36.499670 36.503214 36.509884 36.520356 36.534666 36.553538 36.576915 36.605563 36.639327 36.679010 36.724357 36.776202 36.834187 36.899172 36.970691 37.049625 37.135399 37.228909 37.329472 37.437989 37.553668 37.677416 37.808327 37.947306 38.093341 38.247329 38.408152 38.576693 38.751735 38.934144 39.122606 39.317970 39.518832 39.726018 39.938043 40.155712 40.377469 40.604096 40.833977 41.067870 41.304116 41.543449 41.784180 42.027022 42.270270 42.514621 42.758368 43.002195 43.244410 43.485684 43.724360 43.961095 44.194282 44.424569 44.650409 44.872444 45.089199 45.301307 45.507380 45.708038 45.901988 46.089837 46.270390 46.444235 46.610286 46.769103 46.919711 47.062639 47.197021 47.323347 47.440865 47.550018 47.650162 47.741690 47.824068 47.897625 47.961939 48.017272 48.063308 48.100238 48.127852 48.146265 48.155372 48.155212 48.145784 48.127047 48.099105 48.061840 48.015461 47.959775 47.895096 47.821160 47.738388 47.646448 47.545873 47.436268 47.318276 47.191450 47.056543 46.913062 46.761871 46.602439 46.435742 46.261215 46.079945 45.891342 45.696599 45.495108 45.288162 45.075139 44.857426 44.634390 44.407504 44.176126 43.941805 43.703889 43.463989 43.221445 42.977916 42.732733 42.487586 42.241795 41.997069 41.752709 41.510428 41.269509 41.031650 40.796114 40.564570 40.336259 40.112804 39.893425 39.679686 39.470786 39.268218 39.071159 38.881022 38.696963 38.520308 38.350193 38.187850 38.032398 37.884971 37.744675 37.612540 37.487664 37.370969 37.261553 37.160230 37.066098 36.979864 36.900634 36.829006 36.764100 36.706408 36.655068 36.610468 36.571770 36.539260 36.512130 36.490566 36.473794 36.461907 36.454170 36.450582 36.450455 36.453699 36.459675 36.468210 36.478717 36.490945 36.504365 36.518650 36.533333
36.911111 36.903497 36.896324 36.890107 36.885207 36.882210 36.881391 36.883401 36.888426 36.897176 36.909741 36.926887 36.948605 36.975708 37.008084 37.046589 37.091005 37.142223 37.199915 37.265002 37.337042 37.416980 37.504258 37.599839 37.703048 37.814857 37.934471 38.062871 38.199140 38.344257 38.497187 38.658904 38.828255 39.006203 39.191480 39.385033 39.585488 39.793769 40.008401 40.230284 40.457851 40.691976 40.931008 41.175795 41.424615 41.678289 41.935037 42.195654 42.458320 42.723805 42.990262 43.258441 43.526486 43.795129 44.062524 44.329388 44.593901 44.856769 45.116217 45.372940 45.625224 45.873757 46.116900 46.355333 46.587504 46.814084 47.033623 47.246776 47.452202 47.650540 47.840562 48.022886 48.196400 48.361694 48.517777 48.665200 48.803095 48.931967 49.051067 49.160849 49.260684 49.350961 49.431171 49.501635 49.561957 49.612386 49.652640 49.682885 49.702954 49.712930 49.712758 49.702435 49.682016 49.651416 49.610801 49.560002 49.499298 49.428439 49.347821 49.257117 49.156837 49.046589 48.927000 48.797615 48.659181 48.511189 48.354508 48.188583 48.014405 47.831381 47.640621 47.441507 47.235265 47.021253 46.800813 46.573287 46.340125 46.100655 45.856427 45.606762 45.353297 45.095344 44.834619 44.570424 44.304536 44.036250 43.767385 43.497227 43.227623 42.957842 42.689743 42.422578 42.158197 41.895831 41.637307 41.381832 41.131191 40.884565 40.643685 40.407705 40.178286 39.954556 39.738093 39.528001 39.325766 39.130468 38.943495 38.763905 38.592978 38.429759 38.275415 38.128977 37.991501 37.862009 37.741439 37.628814 37.524954 37.428885 37.341310 37.261267 37.189341 37.124587 37.067476 37.017086 36.973775 36.936649 36.905960 36.880846 36.861453 36.846961 36.837414 36.832037 36.830777 36.832908 36.838285 36.846239 36.856535 36.868564 36.882008 36.896323 36.911111
37.288889 37.282072 37.275776 37.270438 37.266656 37.264779 37.265479 37.269009 37.276108 37.286930 37.302274 37.322192 37.347537 37.378251 37.415236 37.458322 37.508453 37.565339 37.629962 37.701912 37.782197 37.870285 37.967204 38.072296 38.186605 38.309344 38.441564 38.582350 38.732754 38.891730 39.060328 39.237372 39.423902 39.618616 39.822537 40.034244 40.254737 40.482482 40.718453 40.961009 41.211095 41.466976 41.729565 41.997044 42.270295 42.547428 42.829298 43.113958 43.402235 43.692147 43.984493 44.277273 44.571266 44.864471 45.157648 45.448818 45.738728 46.025437 46.309680 46.589577 46.865854 47.136705 47.402850 47.662573 47.916587 48.163279 48.403352 48.635307 48.859835 49.075557 49.283144 49.481344 49.670804 49.850400 50.020745 50.180846 50.331273 50.471164 50.601036 50.720156 50.828979 50.926901 51.014306 51.090714 51.156433 51.211103 51.254950 51.287735 51.309595 51.320409 51.320224 51.309037 51.286803 51.253637 51.209402 51.154334 51.088206 51.011375 50.923530 50.825150 50.715849 50.596228 50.465831 50.325389 50.174382 50.013670 49.842681 49.662407 49.472232 49.273279 49.064899 48.848343 48.622936 48.390058 48.149014 47.901304 47.646223 47.385384 47.118071 46.846002 46.568453 46.287233 46.001614 45.713477 45.422087 45.129385 44.834626 44.539791 44.244119 43.949615 43.655501 43.363782 43.073658 42.787117 42.503336 42.224265 41.949054 41.679599 41.415021 41.157148 40.905068 40.660530 40.422590 40.192902 39.970495 39.756918 39.551175 39.354703 39.166483 38.987833 38.817720 38.657337 38.505640 38.363698 38.230458 38.106863 37.991863 37.886273 37.789048 37.700877 37.620732 37.549175 37.485198 37.429242 37.380326 37.338771 37.303630 37.275110 37.252302 37.235301 37.223245 37.216121 37.213120 37.214125 37.218384 37.225683 37.235331 37.247024 37.260136 37.274275 37.288889
37.666667 37.660964 37.655781 37.651723 37.649219 37.648955 37.651260 37.656896 37.666088 37.679665 37.697746 37.721220 37.750092 37.785306 37.826747 37.875410 37.931055 37.994716 38.066029 38.146060 38.234313 38.331881 38.438133 38.554182 38.679258 38.814487 38.958959 39.113805 39.277976 39.452597 39.636484 39.830750 40.034073 40.247553 40.469732 40.701688 40.941838 41.191230 41.448163 41.713653 41.985890 42.265856 42.551642 42.844196 43.141524 43.444540 43.751182 44.062331 44.375875 44.692663 45.010555 45.330373 45.649966 45.970135 46.288741 46.606568 46.921510 47.234339 47.543002 47.848263 48.148142 48.443397 48.732139 49.015121 49.290559 49.559201 49.819382 50.071840 50.315036 50.549696 50.774415 50.989898 51.194879 51.390031 51.574231 51.748112 51.910690 52.062550 52.202846 52.332102 52.449612 52.555827 52.650175 52.733029 52.803948 52.863218 52.910525 52.946064 52.969646 52.981370 52.981172 52.969051 52.945068 52.909123 52.861402 52.801708 52.730352 52.647045 52.552228 52.445524 52.327504 52.197713 52.056855 51.904406 51.741208 51.566674 51.381786 51.185908 50.980162 50.763874 50.538305 50.302752 50.058615 49.805169 49.543950 49.274218 48.997637 48.713460 48.423467 48.126907 47.825666 47.518988 47.208851 46.894493 46.577966 46.258498 45.938198 45.616282 45.294892 44.973227 44.653443 44.334718 44.019198 43.706035 43.397348 43.092257 42.792832 42.498162 42.210250 41.928151 41.653786 41.386173 41.127138 40.875668 40.633477 40.399522 40.175402 39.960044 39.754923 39.558944 39.373450 39.197331 39.031794 38.875719 38.730177 38.594044 38.468254 38.351687 38.245139 38.147500 38.059433 37.979844 37.909265 37.846627 37.792330 37.745339 37.705928 37.673099 37.647008 37.626700 37.612213 37.602645 37.597923 37.597201 37.600298 37.606434 37.615325 37.626259 37.638858 37.652484 37.666667