<?xml version="1.0"?>
<VTKFile type="ImageData" version="0.1" byte_order="LittleEndian">
  <ImageData WholeExtent="0 180 0 180 0 0" Origin="0.0 0.0 0.0" Spacing="0.05 0.05 1">
    <Piece Extent="0 180 0 180 0 0">
      <PointData Scalars="Temperature">
        <DataArray type="Float32" Name="Temperature" format="ascii">
32.000000 32.000000 32.000000 32.000000 32.000000 32.000000 32.000000 32.000000 32.000000 32.000000 32.000000 32.000000 32.000000 32.000000 32.000000 32.000000 32.000000 32.000000 32.000000 32.000000 32.000000 32.000000 32.000000 32.000000 32.000000 32.000000 32.000000 32.000000 32.000000 32.000000 32.000000 32.000000 32.000000 32.000000 32.000000 32.000000 32.000000 32.000000 32.000000 32.000000 32.000000 32.000000 32.000000 32.000000 32.000000 32.000000 32.000000 32.000000 32.000000 32.000000 32.000000 32.000000 32.000000 32.000000 32.000000 32.000000 32.000000 32.000000 32.000000 32.000000 32.000000 32.000000 32.000000 32.000000 32.000000 32.000000 32.000000 32.000000 32.000000 32.000000 32.000000 32.000000 32.000000 32.000000 32.000000 32.000000 32.000000 32.000000 32.000000 32.000000 32.000000 32.000000 32.000000 32.000000 32.000000 32.000000 32.000000 32.000000 32.000000 32.000000 32.000000 32.000000 32.000000 32.000000 32.000000 32.000000 32.000000 32.000000 32.000000 32.000000 32.000000 32.000000 32.000000 32.000000 32.000000 32.000000 32.000000 32.000000 32.000000 32.000000 32.000000 32.000000 32.000000 32.000000 32.000000 32.000000 32.000000 32.000000 32.000000 32.000000 32.000000 32.000000 32.000000 32.000000 32.000000 32.000000 32.000000 32.000000 32.000000 32.000000 32.000000 32.000000 32.000000 32.000000 32.000000 32.000000 32.000000 32.000000 32.000000 32.000000 32.000000 32.000000 32.000000 32.000000 32.000000 32.000000 32.000000 32.000000 32.000000 32.000000 32.000000 32.000000 32.000000 32.000000 32.000000 32.000000 32.000000 32.000000 32.000000 32.000000 32.000000 32.000000 32.000000 32.000000 32.000000 32.000000 32.000000 32.000000 32.000000 32.000000 32.000000 32.000000 32.000000 32.000000 32.000000 32.000000 32.000000 32.000000 32.000000 32.000000 32.000000
32.377778 32.408719 32.439663 32.470615 32.501578 32.532556 32.563551 32.594567 32.625607 32.656674 32.687770 32.718897 32.750057 32.781252 32.812481 32.843747 32.875047 32.906383 32.937753 32.969155 33.000587 33.032046 33.063528 33.095029 33.126544 33.158067 33.189591 33.221110 33.252613 33.284095 33.315542 33.346946 33.378295 33.409577 33.440776 33.471883 33.502878 33.533750 33.564479 33.595052 33.625446 33.655648 33.685634 33.715389 33.744889 33.774117 33.803050 33.831667 33.859947 33.887869 33.915409 33.942548 33.969262 33.995531 34.021333 34.046647 34.071452 34.095729 34.119457 34.142617 34.165189 34.187158 34.208504 34.229212 34.249266 34.268651 34.287352 34.305358 34.322654 34.339230 34.355075 34.370180 34.384534 34.398131 34.410961 34.423020 34.434299 34.444796 34.454503 34.463417 34.471535 34.478853 34.485369 34.491080 34.495984 34.500079 34.503365 34.505841 34.507506 34.508358 34.508399 34.507629 34.506047 34.503655 34.500453 34.496442 34.491625 34.486002 34.479576 34.472350 34.464326 34.455507 34.445899 34.435505 34.424330 34.412380 34.399661 34.386180 34.371946 34.356965 34.341249 34.324805 34.307647 34.289785 34.271232 34.252001 34.232107 34.211564 34.190390 34.168599 34.146211 34.123242 34.099713 34.075640 34.051048 34.025953 34.000378 33.974344 33.947873 33.920985 33.893704 33.866050 33.838046 33.809713 33.781075 33.752149 33.722961 33.693527 33.663870 33.634009 33.603963 33.573750 33.543390 33.512896 33.482289 33.451582 33.420791 33.389928 33.359009 33.328043 33.297046 33.266025 33.234992 33.203954 33.172922 33.141900 33.110898 33.079919 33.048970 33.018054 32.987175 32.956336 32.925540 32.894787 32.864079 32.833416 32.802799 32.772225 32.741695 32.711206 32.680758 32.650346 32.619969 32.589623 32.559305 32.529012 32.498740 32.468484 32.438242 32.408008 32.377778
32.755556 32.817439 32.879330 32.941235 33.003163 33.065120 33.127112 33.189147 33.251230 33.313366 33.375561 33.437818 33.500143 33.562535 33.624999 33.687533 33.750141 33.812817 33.875564 33.938373 34.001245 34.064170 34.127144 34.190154 34.253194 34.316249 34.379310 34.442357 34.505378 34.568352 34.631262 34.694083 34.756797 34.819374 34.881793 34.944020 35.006032 35.067791 35.129271 35.190432 35.251244 35.311665 35.371662 35.431190 35.490215 35.548690 35.606580 35.663835 35.720419 35.776282 35.831387 35.885685 35.939138 35.991696 36.043323 36.093971 36.143603 36.192175 36.239651 36.285988 36.331153 36.375105 36.417816 36.459246 36.499369 36.538152 36.575569 36.611590 36.646196 36.679357 36.711058 36.741275 36.769992 36.797192 36.822860 36.846982 36.869548 36.890544 36.909963 36.927795 36.944034 36.958673 36.971706 36.983129 36.992939 37.001132 37.007705 37.012657 37.015986 37.017692 37.017774 37.016233 37.013069 37.008284 37.001878 36.993856 36.984219 36.972972 36.960118 36.945662 36.929611 36.911972 36.892750 36.871958 36.849602 36.825697 36.800252 36.773284 36.744806 36.714837 36.683393 36.650497 36.616168 36.580433 36.543312 36.504838 36.465033 36.423934 36.381567 36.337970 36.293174 36.247219 36.200139 36.151977 36.102769 36.052560 36.001388 35.949300 35.896333 35.842537 35.787950 35.732622 35.676590 35.619905 35.562603 35.504732 35.446330 35.387444 35.328108 35.268366 35.208253 35.147810 35.087067 35.026065 34.964831 34.903401 34.841799 34.780060 34.718205 34.656262 34.594251 34.532198 34.470118 34.408033 34.345955 34.283904 34.221888 34.159923 34.098015 34.036177 33.974411 33.912728 33.851128 33.789618 33.728197 33.666867 33.605627 33.544477 33.483412 33.422433 33.361531 33.300706 33.239949 33.179256 33.118618 33.058031 32.997485 32.936973 32.876486 32.816016 32.755556
33.133333 33.226162 33.319002 33.411865 33.504761 33.597701 33.690695 33.783753 33.876883 33.970095 34.063393 34.156789 34.250282 34.343882 34.437586 34.531402 34.625324 34.719355 34.813487 34.907721 35.002044 35.096453 35.190931 35.285472 35.380053 35.474664 35.569279 35.663882 35.758441 35.852937 35.947333 36.041605 36.135709 36.229618 36.323283 36.416671 36.509729 36.602418 36.694681 36.786475 36.877740 36.968426 37.058470 37.147820 37.236408 37.324180 37.411065 37.497008 37.581936 37.665792 37.748501 37.830008 37.910237 37.989133 38.066623 38.142651 38.217148 38.290059 38.361317 38.430872 38.498661 38.564637 38.628740 38.690927 38.751146 38.809357 38.865513 38.919578 38.971511 39.021282 39.068855 39.114204 39.157298 39.198117 39.236634 39.272834 39.306693 39.338200 39.367337 39.394095 39.418460 39.440425 39.459980 39.477120 39.491838 39.504130 39.513992 39.521421 39.526416 39.528975 39.529098 39.526786 39.522039 39.514859 39.505249 39.493212 39.478753 39.461877 39.442591 39.420900 39.396817 39.370347 39.341507 39.310305 39.276760 39.240886 39.202704 39.162232 39.119497 39.074519 39.027332 38.977959 38.926440 38.872803 38.817093 38.759343 38.699603 38.637911 38.574323 38.508881 38.441645 38.372663 38.301998 38.229702 38.155843 38.080473 38.003665 37.925474 37.845973 37.765219 37.683287 37.600234 37.516135 37.431046 37.345042 37.258177 37.170524 37.082137 36.993084 36.903416 36.813200 36.722482 36.631325 36.539772 36.447880 36.355688 36.263249 36.170597 36.077780 35.984827 35.891780 35.798665 35.705517 35.612358 35.519217 35.426112 35.333067 35.240094 35.147215 35.054435 34.961772 34.869228 34.776816 34.684535 34.592392 34.500384 34.408515 34.316779 34.225176 34.133697 34.042340 33.951094 33.859954 33.768908 33.677949 33.587062 33.496240 33.405468 33.314735 33.224028 33.133333
33.511111 33.634890 33.758685 33.882509 34.006379 34.130307 34.254309 34.378396 34.502581 34.626875 34.751289 34.875828 35.000505 35.125320 35.250282 35.375388 35.500644 35.626042 35.751583 35.877256 36.003057 36.128967 36.254981 36.381072 36.507229 36.633421 36.759629 36.885815 37.011956 37.138006 37.263936 37.389693 37.515242 37.640521 37.765490 37.890081 38.014247 38.137913 38.261024 38.383503 38.505288 38.626294 38.746455 38.865683 38.983908 39.101035 39.216991 39.331681 39.445028 39.556935 39.667325 39.776099 39.883180 39.988471 40.091896 40.193360 40.292789 40.390092 40.485199 40.578022 40.668495 40.756538 40.842090 40.925075 41.005440 41.083115 41.158053 41.230194 41.299494 41.365900 41.429378 41.489881 41.547380 41.601836 41.653225 41.701515 41.746687 41.788715 41.827585 41.863277 41.895779 41.925076 41.951160 41.974021 41.993652 42.010046 42.023200 42.033108 42.039770 42.043183 42.043347 42.040262 42.033930 42.024354 42.011536 41.995482 41.976195 41.953686 41.927959 41.899028 41.866900 41.831593 41.793118 41.751497 41.706744 41.658887 41.607945 41.553951 41.496930 41.436922 41.373957 41.308082 41.239333 41.167765 41.093420 41.016359 40.936632 40.854308 40.769443 40.682111 40.592374 40.500316 40.406001 40.309517 40.210937 40.110351 40.007835 39.903483 39.797373 39.689603 39.580250 39.469414 39.357171 39.243620 39.128838 39.012921 38.895943 38.777999 38.659158 38.539511 38.419123 38.298080 38.176443 38.054292 37.931681 37.808684 37.685350 37.561746 37.437914 37.313915 37.189785 37.065575 36.941317 36.817055 36.692812 36.568629 36.444521 36.320520 36.196638 36.072900 35.949313 35.825894 35.702647 35.579582 35.456699 35.334003 35.211489 35.089159 34.967003 34.845020 34.723195 34.601525 34.479993 34.358591 34.237302 34.116114 33.995010 33.873975 33.752991 33.632042 33.511111
33.888889 34.043625 34.198379 34.353173 34.508022 34.662947 34.817963 34.973089 35.128337 35.283725 35.439262 35.594963 35.750832 35.906883 36.063114 36.219535 36.376139 36.532931 36.689900 36.847044 37.004344 37.161794 37.319368 37.477054 37.634817 37.792637 37.950473 38.108298 38.266060 38.423726 38.581234 38.738544 38.895586 39.052310 39.208638 39.364512 39.519845 39.674572 39.828598 39.981850 40.134225 40.285644 40.435997 40.585200 40.733137 40.879719 41.024825 41.168362 41.310209 41.450268 41.588417 41.724559 41.858570 41.990354 42.119790 42.246784 42.371219 42.493004 42.612026 42.728201 42.841422 42.951611 43.058668 43.162522 43.263083 43.360286 43.454052 43.544322 43.631027 43.714118 43.793532 43.869230 43.941160 44.009286 44.073567 44.133976 44.190476 44.243047 44.291662 44.336304 44.376951 44.413593 44.446213 44.474803 44.499351 44.519853 44.536301 44.548692 44.557021 44.561289 44.561494 44.557636 44.549718 44.537741 44.521712 44.501634 44.477516 44.449364 44.417191 44.381006 44.340826 44.296664 44.248542 44.196478 44.140502 44.080633 44.016911 43.949361 43.878029 43.802949 43.724175 43.641749 43.555732 43.466176 43.373151 43.276716 43.176952 43.073924 42.967724 42.858424 42.746124 42.630904 42.512871 42.392110 42.268736 42.142840 42.014539 41.883930 41.751133 41.616246 41.479392 41.340670 41.200204 41.058091 40.914452 40.769384 40.623005 40.475406 40.326704 40.176983 40.026355 39.874897 39.722715 39.569881 39.416491 39.262609 39.108326 38.953696 38.798800 38.643688 38.488429 38.333064 38.177655 38.022236 37.866858 37.711546 37.556345 37.401273 37.246364 37.091630 36.937097 36.782771 36.628671 36.474796 36.321158 36.167751 36.014581 35.861637 35.708920 35.556415 35.404117 35.252008 35.100080 34.948310 34.796688 34.645190 34.493800 34.342495 34.191257 34.040062 33.888889
34.266667 34.452366 34.638089 34.823858 35.009697 35.195625 35.381668 35.567840 35.754166 35.940657 36.127336 36.314208 36.501293 36.688591 36.876119 37.063870 37.251855 37.440062 37.628495 37.817134 38.005977 38.194997 38.384182 38.573496 38.762922 38.952412 39.141940 39.331450 39.520905 39.710239 39.899406 40.088329 40.276952 40.465186 40.652968 40.840197 41.026801 41.212668 41.397717 41.581827 41.764907 41.946829 42.127493 42.306765 42.484538 42.660671 42.835053 43.007538 43.178010 43.346322 43.512357 43.675966 43.837031 43.995405 44.150973 44.303591 44.453147 44.599502 44.742550 44.882159 45.018230 45.150639 45.279295 45.404086 45.524927 45.641718 45.754385 45.862837 45.967012 46.066829 46.162236 46.253165 46.339570 46.421397 46.498608 46.571156 46.639015 46.702147 46.760530 46.814134 46.862945 46.906940 46.946109 46.980434 47.009908 47.034521 47.054269 47.069144 47.079144 47.084267 47.084512 47.079880 47.070372 47.055994 47.036747 47.012642 46.983682 46.949882 46.911248 46.867800 46.819549 46.766520 46.708728 46.646205 46.578972 46.507071 46.430529 46.349394 46.263704 46.173517 46.078878 45.979857 45.876508 45.768912 45.657133 45.541264 45.421377 45.297579 45.169950 45.038607 44.903641 44.765177 44.623316 44.478190 44.329906 44.178605 44.024400 43.867435 43.707826 43.545723 43.381242 43.214535 43.045719 42.874943 42.702322 42.528005 42.352101 42.174754 41.996071 41.816187 41.635202 41.453246 41.270410 41.086814 40.902542 40.717704 40.532375 40.346654 40.160606 39.974321 39.787853 39.601281 39.414649 39.228027 39.041447 38.854969 38.668617 38.482440 38.296453 38.110694 37.925172 37.739915 37.554925 37.370220 37.185795 37.001662 36.817808 36.634240 36.450939 36.267904 36.085113 35.902560 35.720219 35.538077 35.356109 35.174296 34.992611 34.811033 34.629533 34.448086 34.266667
34.644444 34.861116 35.077815 35.294570 35.511406 35.728351 35.945427 36.162662 36.380075 36.597689 36.815520 37.033588 37.251901 37.470478 37.689318 37.908436 38.127822 38.347485 38.567408 38.787592 39.008009 39.228653 39.449487 39.670495 39.891627 40.112860 40.334133 40.555409 40.776617 40.997710 41.218603 41.439238 41.659518 41.879372 42.098692 42.317395 42.535360 42.752495 42.968664 43.183767 43.397657 43.610223 43.821310 44.030798 44.238523 44.444358 44.648134 44.849719 45.048938 45.245656 45.439697 45.630924 45.819162 46.004275 46.186090 46.364475 46.539262 46.710323 46.877500 47.040671 47.199686 47.354434 47.504775 47.650608 47.791807 47.928280 48.059915 48.186633 48.308333 48.424949 48.536395 48.642615 48.743535 48.839111 48.929281 49.014011 49.093252 49.166975 49.235142 49.297734 49.354721 49.406087 49.451811 49.491885 49.526291 49.555024 49.578073 49.595437 49.607109 49.613088 49.613373 49.607965 49.596867 49.580080 49.557614 49.529471 49.495665 49.456202 49.411100 49.360370 49.304036 49.242114 49.174634 49.101619 49.023109 48.939133 48.849741 48.754971 48.654885 48.549529 48.438978 48.323290 48.202552 48.076832 47.946232 47.810833 47.670748 47.526071 47.376928 47.223423 47.065697 46.903861 46.738069 46.568440 46.395137 46.218289 46.038063 45.854594 45.668055 45.478583 45.286356 45.091510 44.894223 44.694632 44.492910 44.289192 44.083649 43.876407 43.667631 43.457443 43.245997 43.033407 42.819818 42.605334 42.390089 42.174176 41.957718 41.740796 41.523521 41.305962 41.088219 40.870348 40.652435 40.434526 40.216695 39.998976 39.781431 39.564083 39.346981 39.130141 38.913600 38.697363 38.481458 38.265881 38.050649 37.835754 37.621203 37.406979 37.193083 36.979493 36.766202 36.553183 36.340424 36.127894 35.915575 35.703435 35.491450 35.279588 35.067822 34.856117 34.644444
35.022222 35.269875 35.517561 35.765310 36.013156 36.261125 36.509252 36.757559 37.006078 37.254827 37.503834 37.753112 38.002684 38.252556 38.502746 38.753251 39.004083 39.255229 39.506695 39.758455 40.010507 40.262816 40.515369 40.768116 41.021036 41.274067 41.527174 41.780281 42.033343 42.286268 42.538999 42.791430 43.043488 43.295056 43.546046 43.796326 44.045795 44.294308 44.541752 44.787967 45.032829 45.276166 45.517844 45.757681 45.995532 46.231207 46.464556 46.695381 46.923526 47.148792 47.371019 47.590005 47.805593 48.017582 48.225815 48.430099 48.630281 48.826175 49.017634 49.204484 49.386587 49.563779 49.735937 49.902908 50.064582 50.220821 50.371529 50.516583 50.655900 50.789375 50.916936 51.038496 51.153994 51.263358 51.366541 51.463481 51.554144 51.638481 51.716466 51.788061 51.853246 51.911995 51.964293 52.010121 52.049470 52.082327 52.108687 52.128541 52.141888 52.148723 52.149048 52.142863 52.130169 52.110973 52.085278 52.053095 52.014429 51.969296 51.917708 51.859685 51.795242 51.724411 51.647211 51.563681 51.473851 51.377771 51.275476 51.167032 51.052485 50.931911 50.805371 50.672955 50.534736 50.390822 50.241296 50.086283 49.925881 49.760230 49.589441 49.413668 49.233037 49.047713 48.857834 48.663578 48.465092 48.262563 48.056145 47.846034 47.632388 47.415408 47.195253 46.972127 46.746189 46.517642 46.286641 46.053386 45.818027 45.580758 45.341721 45.101101 44.859033 44.615689 44.371195 44.125711 43.879349 43.632259 43.384538 43.136323 42.887698 42.638784 42.389652 42.140409 41.891113 41.641856 41.392682 41.143668 40.894848 40.646284 40.397997 40.150038 39.902416 39.655168 39.408294 39.161821 38.915738 38.670062 38.424774 38.179881 37.935359 37.691203 37.447385 37.203894 36.960695 36.717771 36.475086 36.232613 35.990317 35.748166 35.506123 35.264155 35.022222
35.400000 35.678645 35.957326 36.236082 36.514946 36.793956 37.073142 37.352541 37.632177 37.912085 38.192283 38.472801 38.753649 39.034854 39.316415 39.598353 39.880657 40.163341 40.446381 40.729782 41.013510 41.297558 41.581877 41.866450 42.151215 42.436141 42.721149 43.006197 43.291190 43.576070 43.860727 44.145088 44.429026 44.712452 44.995225 45.277239 45.558336 45.838397 46.117248 46.394756 46.670732 46.945030 47.217449 47.487831 47.755965 48.021683 48.284765 48.545037 48.802272 49.056292 49.306868 49.553818 49.796916 50.035981 50.270790 50.501165 50.726892 50.947800 51.163683 51.374381 51.579702 51.779497 51.973587 52.161839 52.344090 52.520223 52.690091 52.853593 53.010601 53.161029 53.304768 53.441747 53.571873 53.695090 53.811323 53.920526 54.022641 54.117632 54.205454 54.286083 54.359482 54.425635 54.484516 54.536115 54.580412 54.617403 54.647075 54.669426 54.684449 54.692143 54.692507 54.685542 54.671252 54.649639 54.620712 54.584475 54.540944 54.490125 54.432040 54.366701 54.294136 54.214363 54.127422 54.033336 53.932157 53.823918 53.708684 53.586498 53.457441 53.321569 53.178977 53.029739 52.873964 52.711743 52.543203 52.368448 52.187627 52.000858 51.808307 51.610108 51.406442 51.197459 50.983354 50.764287 50.540467 50.312065 50.079299 49.842346 49.601432 49.356737 49.108493 48.856879 48.602128 48.344418 48.083977 47.820981 47.555652 47.288157 47.018709 46.747468 46.474635 46.200357 45.924825 45.648171 45.370571 45.092144 44.813051 44.533395 44.253320 43.972915 43.692308 43.411571 43.130815 42.850098 42.569515 42.289109 42.008957 41.729091 41.449573 41.170418 40.891677 40.613353 40.335480 40.058055 39.781097 39.504592 39.228550 38.952949 38.677786 38.403033 38.128679 37.854689 37.581044 37.307706 37.034648 36.761828 36.489214 36.216764 35.944440 35.672199 35.400000
35.777778 36.087424 36.397113 36.706884 37.016781 37.326841 37.637105 37.947606 38.258384 38.569464 38.880882 39.192656 39.504818 39.817376 40.130354 40.443751 40.757583 41.071836 41.386518 41.701600 42.017080 42.332915 42.649091 42.965548 43.282260 43.599150 43.916176 44.233244 44.550299 44.867226 45.183954 45.500350 45.816326 46.131730 46.446457 46.760338 47.073247 47.385001 47.695457 48.004412 48.311711 48.617136 48.920514 49.221617 49.520260 49.816201 50.109248 50.399151 50.685710 50.968670 51.247828 51.522928 51.793766 52.060088 52.321694 52.578336 52.829820 53.075907 53.316414 53.551115 53.779838 54.002375 54.218567 54.428224 54.631205 54.827338 55.016501 55.198542 55.373357 55.540814 55.700828 55.853287 55.998121 56.135239 56.264587 56.386089 56.499705 56.605378 56.703076 56.792756 56.874397 56.947967 57.013451 57.070827 57.120088 57.161216 57.194209 57.219058 57.235760 57.244312 57.244715 57.236970 57.221078 57.197046 57.164878 57.124585 57.076173 57.019660 56.955057 56.882389 56.801671 56.712939 56.616216 56.511548 56.398967 56.278535 56.150293 56.014319 55.870670 55.719438 55.560697 55.394559 55.221113 55.040493 54.852804 54.658200 54.456806 54.248796 54.034312 53.813548 53.586662 53.353865 53.115332 52.871290 52.621924 52.367474 52.108137 51.844161 51.575748 51.303155 51.026586 50.746300 50.462500 50.175443 49.885331 49.592414 49.296886 48.998992 48.698914 48.396886 48.093079 47.787713 47.480944 47.172976 46.863952 46.554058 46.243418 45.932204 45.620521 45.308520 44.996292 44.683969 44.371622 44.059367 43.747258 43.435391 43.123806 42.812580 42.501739 42.191343 41.881404 41.571966 41.263028 40.954620 40.646731 40.339375 40.032532 39.726204 39.420363 39.115000 38.810078 38.505581 38.201466 37.897706 37.594257 37.291085 36.988140 36.685385 36.382770 36.080250 35.777778
36.155556 36.496214 36.836919 37.177720 37.518659 37.859786 38.201138 38.542764 38.884694 39.226974 39.569628 39.912695 40.256189 40.600145 40.944565 41.289475 41.634866 41.980755 42.327117 42.673958 43.021239 43.368953 43.717044 44.065490 44.414219 44.763193 45.112320 45.461545 45.810757 46.159883 46.508791 46.857391 47.205529 47.553095 47.899915 48.245861 48.590738 48.934397 49.276625 49.617256 49.956058 50.292848 50.627378 50.959449 51.288800 51.615221 51.938439 52.258234 52.574325 52.886488 53.194438 53.497947 53.796731 54.090564 54.379168 54.662320 54.939752 55.211251 55.476560 55.735480 55.987770 56.233247 56.471688 56.702929 56.926769 57.143061 57.351630 57.552348 57.745062 57.929666 58.106029 58.274066 58.433667 58.584766 58.727272 58.861136 58.986287 59.102688 59.210285 59.309053 59.398951 59.479962 59.552059 59.615230 59.669458 59.714735 59.751051 59.778404 59.796786 59.806198 59.806640 59.798111 59.780616 59.754158 59.718746 59.674383 59.621085 59.558859 59.487728 59.407704 59.318819 59.221090 59.114563 58.999263 58.875248 58.742557 58.601264 58.451421 58.293120 58.126430 57.951464 57.768309 57.577099 57.377940 57.170991 56.956378 56.734282 56.504851 56.268287 56.024758 55.774487 55.517661 55.254522 54.985271 54.710168 54.429426 54.143317 53.852063 53.555947 53.255194 52.950093 52.640870 52.327813 52.011149 51.691159 51.368064 51.042140 50.713596 50.382699 50.049644 49.714684 49.378000 49.039828 48.700332 48.359730 48.018169 47.675845 47.332888 46.989472 46.645708 46.301750 45.957687 45.613656 45.269725 44.926009 44.582560 44.239472 43.896781 43.554560 43.212830 42.871647 42.531016 42.190975 41.851519 41.512669 41.174406 40.836740 40.499641 40.163105 39.827095 39.491595 39.156561 38.821968 38.487765 38.153919 37.820377 37.487098 37.154026 36.821114 36.488308 36.155556
36.533333 36.905014 37.276747 37.648585 38.020582 38.392784 38.765245 39.138005 39.511116 39.884609 40.258532 40.632908 41.007779 41.383155 41.759070 42.135523 42.512538 42.890099 43.268219 43.646865 44.026039 44.405689 44.785802 45.166308 45.547177 45.928319 46.309685 46.691165 47.072690 47.454129 47.835392 48.216325 48.596818 48.976691 49.355816 49.733989 50.111059 50.486803 50.861047 51.233546 51.604109 51.972470 52.338421 52.701678 53.062018 53.419145 53.772820 54.122739 54.468653 54.810252 55.147284 55.479434 55.806450 56.128022 56.443900 56.753781 57.057425 57.354542 57.644902 57.928231 58.204318 58.472908 58.733807 58.986785 59.231670 59.468255 59.696392 59.915899 60.126651 60.328493 60.521322 60.705010 60.879473 61.044607 61.200348 61.346614 61.483358 61.610516 61.728055 61.835928 61.934115 62.022579 62.101310 62.170282 62.229491 62.278920 62.318567 62.348424 62.368490 62.378763 62.379241 62.369929 62.350826 62.321940 62.283273 62.234838 62.176638 62.108693 62.031011 61.943620 61.846533 61.739790 61.623412 61.497452 61.361943 61.216953 61.062531 60.898763 60.725715 60.543494 60.352185 60.151920 59.942805 59.724997 59.498624 59.263870 59.020884 58.769878 58.511024 58.244557 57.970672 57.689625 57.401630 57.106965 56.805859 56.498606 56.185448 55.866690 55.542583 55.213440 54.879514 54.541123 54.198518 53.852014 53.501859 53.148361 52.791759 52.432351 52.070361 51.706075 51.339702 50.971509 50.601689 50.230489 49.858081 49.484691 49.110472 48.735627 48.360285 47.984628 47.608765 47.232852 46.856976 46.481274 46.105810 45.730698 45.355983 44.981758 44.608050 44.234930 43.862411 43.490541 43.119320 42.748779 42.378903 42.009707 41.641163 41.273274 40.906000 40.539329 40.173216 39.807637 39.442539 39.077887 38.713624 38.349709 37.986080 37.622687 37.259469 36.896372 36.533333
36.911111 37.313823 37.716593 38.119482 38.522544 38.925839 39.329416 39.733335 40.137636 40.542374 40.947581 41.353308 41.759573 42.166421 42.573857 42.981916 43.390589 43.799899 44.209821 44.620364 45.031485 45.443178 45.855381 46.268070 46.681161 47.094611 47.508315 47.922210 48.336165 48.750095 49.163846 49.577311 49.990309 50.402710 50.814307 51.224946 51.634397 52.042482 52.448946 52.853588 53.256132 53.656355 54.053960 54.448707 54.840280 55.228425 55.612811 55.993172 56.369168 56.740523 57.106895 57.468004 57.823507 58.173127 58.516527 58.853436 59.183529 59.506545 59.822176 60.130179 60.430264 60.722207 61.005745 61.280676 61.546763 61.803830 62.051668 62.290127 62.519028 62.738246 62.947629 63.147080 63.336473 63.515732 63.684759 63.843497 63.991868 64.129835 64.257340 64.374357 64.480845 64.576789 64.662160 64.736952 64.801144 64.854736 64.897715 64.930082 64.951831 64.962964 64.963480 64.953381 64.932670 64.901349 64.859427 64.806906 64.743801 64.670117 64.585877 64.491089 64.385788 64.269989 64.143738 64.007063 63.860025 63.702665 63.535064 63.357279 63.169415 62.971548 62.763808 62.546295 62.319165 62.082542 61.836611 61.581524 61.317492 61.044694 60.763371 60.473724 60.176022 59.870490 59.557420 59.237057 58.909713 58.575650 58.235195 57.888622 57.536270 57.178417 56.815410 56.447528 56.075117 55.698455 55.317883 54.933668 54.546144 54.155566 53.762253 53.366443 52.968439 52.568462 52.166791 51.763627 51.359227 50.953769 50.547487 50.140533 49.733116 49.325366 48.917466 48.509521 48.101690 47.694054 47.286746 46.879827 46.473406 46.067522 45.662261 45.257643 44.853734 44.450535 44.048091 43.646389 43.245455 42.845261 42.445818 42.047085 41.649057 41.251685 40.854949 40.458792 40.063182 39.668058 39.273375 38.879069 38.485087 38.091363 37.697836 37.304440 36.911111
37.288889 37.722640 38.156457 38.590402 39.024544 39.458939 39.893654 40.328739 40.764258 41.200253 41.636781 42.073873 42.511582 42.949923 43.388940 43.828635 44.269040 44.710139 45.151951 45.594443 46.037616 46.481418 46.925833 47.370785 47.816239 48.262095 48.708299 49.154722 49.601288 50.047844 50.494288 50.940438 51.386167 51.831268 52.275586 52.718886 53.160987 53.601627 54.040600 54.477617 54.912449 55.344782 55.774366 56.200865 56.624009 57.043446 57.458889 57.869973 58.276400 58.677796 59.073858 59.464209 59.848544 60.226490 60.597746 60.961950 61.318810 61.667978 62.009179 62.342086 62.666444 62.981951 63.288375 63.585444 63.872953 64.150661 64.418391 64.675935 64.923145 65.159845 65.385916 65.601212 65.805642 65.999088 66.181483 66.352735 66.512798 66.661602 66.799117 66.925294 67.040116 67.143547 67.235580 67.316193 67.385383 67.443136 67.489454 67.524330 67.547766 67.559759 67.560311 67.549425 67.527101 67.493345 67.448158 67.391551 67.323526 67.244100 67.153278 67.051087 66.937536 66.812665 66.676494 66.529076 66.370443 66.200669 66.019803 65.827941 65.625152 65.411557 65.187251 64.952383 64.707074 64.451505 64.185824 63.910246 63.624946 63.330172 63.026128 62.713093 62.391298 62.061049 61.722604 61.376292 61.022390 60.661250 60.293164 59.918499 59.537556 59.150711 58.758270 58.360614 57.958047 57.550946 57.139609 56.724405 56.305621 55.883612 55.458649 55.031069 54.601125 54.169132 53.735319 53.299980 52.863317 52.425599 51.987003 51.547769 51.108050 50.668055 50.227913 49.787804 49.347832 48.908150 48.468835 48.030015 47.591743 47.154123 46.717184 46.281007 45.845601 45.411023 44.977267 44.544367 44.112300 43.681082 43.250677 42.821083 42.392252 41.964167 41.536769 41.110028 40.683879 40.258278 39.833155 39.408457 38.984110 38.560053 38.136210 37.712513 37.288889
37.666667 38.131464 38.596333 39.061346 39.526572 39.992083 40.457941 40.924217 41.390962 41.858246 42.326107 42.794609 43.263778 43.733669 44.204293 44.675693 45.147865 45.620838 46.094588 46.569129 47.044416 47.520446 47.997150 48.474504 48.952415 49.430838 49.909653 50.388789 50.868100 51.347488 51.826777 52.305843 52.784480 53.262536 53.739773 54.216012 54.690984 55.164481 55.636205 56.105921 56.573303 57.038090 57.499931 57.958542 58.413550 58.864650 59.311454 59.753642 60.190811 60.622631 61.048695 61.468668 61.882143 62.288786 62.688197 63.080051 63.463962 63.839619 64.206655 64.564780 64.913652 65.253007 65.582532 65.901992 66.211109 66.509679 66.797457 67.074273 67.339920 67.594258 67.837116 68.068384 68.287925 68.495657 68.691472 68.875313 69.047101 69.206796 69.354342 69.489717 69.612881 69.723825 69.822522 69.908972 69.983157 70.045081 70.094736 70.132125 70.157244 70.170098 70.170686 70.159010 70.135074 70.098877 70.050427 69.989724 69.916779 69.831593 69.734187 69.624564 69.502755 69.368772 69.222659 69.064441 68.894180 68.711916 68.517733 68.311691 68.093903 67.864452 67.623480 67.371099 67.107485 66.832779 66.547192 66.250899 65.944147 65.627140 65.300163 64.963452 64.617324 64.262044 63.897959 63.525360 63.144617 62.756043 62.360027 61.956897 61.547056 61.130837 60.708653 60.280839 59.847806 59.409884 58.967480 58.520913 58.070577 57.616775 57.159885 56.700191 56.238046 55.773712 55.307517 54.839698 54.370555 53.900295 53.429190 52.957418 52.485222 52.012750 51.540213 51.067733 50.595489 50.123576 49.652143 49.181260 48.711047 48.241548 47.772858 47.304999 46.838039 46.371979 45.906866 45.442681 44.979449 44.517137 44.055748 43.595236 43.135588 42.676745 42.218678 41.761320 41.304628 40.848528 40.392964 39.937858 39.483147 39.028747 38.574588 38.120587 37.666667