<?xml version="1.0"?>
<VTKFile type="ImageData" version="0.1" byte_order="LittleEndian">
  <ImageData WholeExtent="0 180 0 180 0 0" Origin="0.0 0.0 0.0" Spacing="0.05 0.05 1">
    <Piece Extent="0 180 0 180 0 0">
      <PointData Scalars="Temperature">
        <DataArray type="Float32" Name="Temperature" format="ascii">
32.000000 32.000000 32.000000 32.000000 32.000000 32.000000 32.000000 32.000000 32.000000 32.000000 32.000000 32.000000 32.000000 32.000000 32.000000 32.000000 32.000000 32.000000 32.000000 32.000000 32.000000 32.000000 32.000000 32.000000 32.000000 32.000000 32.000000 32.000000 32.000000 32.000000 32.000000 32.000000 32.000000 32.000000 32.000000 32.000000 32.000000 32.000000 32.000000 32.000000 32.000000 32.000000 32.000000 32.000000 32.000000 32.000000 32.000000 32.000000 32.000000 32.000000 32.000000 32.000000 32.000000 32.000000 32.000000 32.000000 32.000000 32.000000 32.000000 32.000000 32.000000 32.000000 32.000000 32.000000 32.000000 32.000000 32.000000 32.000000 32.000000 32.000000 32.000000 32.000000 32.000000 32.000000 32.000000 32.000000 32.000000 32.000000 32.000000 32.000000 32.000000 32.000000 32.000000 32.000000 32.000000 32.000000 32.000000 32.000000 32.000000 32.000000 32.000000 32.000000 32.000000 32.000000 32.000000 32.000000 32.000000 32.000000 32.000000 32.000000 32.000000 32.000000 32.000000 32.000000 32.000000 32.000000 32.000000 32.000000 32.000000 32.000000 32.000000 32.000000 32.000000 32.000000 32.000000 32.000000 32.000000 32.000000 32.000000 32.000000 32.000000 32.000000 32.000000 32.000000 32.000000 32.000000 32.000000 32.000000 32.000000 32.000000 32.000000 32.000000 32.000000 32.000000 32.000000 32.000000 32.000000 32.000000 32.000000 32.000000 32.000000 32.000000 32.000000 32.000000 32.000000 32.000000 32.000000 32.000000 32.000000 32.000000 32.000000 32.000000 32.000000 32.000000 32.000000 32.000000 32.000000 32.000000 32.000000 32.000000 32.000000 32.000000 32.000000 32.000000 32.000000 32.000000 32.000000 32.000000 32.000000 32.000000 32.000000 32.000000 32.000000 32.000000 32.000000 32.000000 32.000000 32.000000 32.000000 32.000000 32.000000
32.377778 32.397092 32.416423 32.435790 32.455208 32.474696 32.494266 32.513942 32.533732 32.553659 32.573728 32.593966 32.614373 32.634975 32.655771 32.676786 32.698016 32.719484 32.741183 32.763138 32.785336 32.807801 32.830516 32.853505 32.876746 32.900263 32.924029 32.948065 32.972342 32.996880 33.021644 33.046652 33.071866 33.097302 33.122918 33.148727 33.174685 33.200803 33.227031 33.253380 33.279798 33.306291 33.332806 33.359348 33.385861 33.412347 33.438749 33.465069 33.491247 33.517284 33.543121 33.568756 33.594131 33.619244 33.644036 33.668505 33.692594 33.716300 33.739569 33.762397 33.784732 33.806572 33.827867 33.848615 33.868769 33.888328 33.907249 33.925532 33.943136 33.960063 33.976275 33.991775 34.006530 34.020542 34.033783 34.046255 34.057933 34.068819 34.078894 34.088160 34.096598 34.104212 34.110989 34.116929 34.122023 34.126272 34.129669 34.132215 34.133906 34.134743 34.134723 34.133847 34.132117 34.129531 34.126095 34.121807 34.116674 34.110695 34.103880 34.096228 34.087752 34.078449 34.068337 34.057414 34.045701 34.033194 34.019920 34.005874 33.991087 33.975556 33.959314 33.942360 33.924729 33.906422 33.887478 33.867898 33.847726 33.826963 33.805656 33.783806 33.761464 33.738634 33.715366 33.691665 33.667587 33.643133 33.618361 33.593274 33.567930 33.542332 33.516540 33.490554 33.464435 33.438182 33.411855 33.385453 33.359033 33.332594 33.306192 33.279822 33.253538 33.227335 33.201265 33.175318 33.149543 33.123931 33.098525 33.073315 33.048341 33.023589 32.999096 32.974846 32.950874 32.927159 32.903732 32.880573 32.857708 32.835113 32.812812 32.790780 32.769036 32.747554 32.726349 32.705394 32.684700 32.664241 32.644022 32.624018 32.604231 32.584634 32.565226 32.545982 32.526898 32.507947 32.489122 32.470400 32.451769 32.433208 32.414702 32.396230 32.377778
32.755556 32.794197 32.832875 32.871620 32.910472 32.949457 32.988619 33.027977 33.067579 33.107438 33.147604 33.188083 33.228926 33.270133 33.311756 33.353788 33.396280 33.439219 33.482654 33.526564 33.571000 33.615930 33.661403 33.707381 33.753910 33.800943 33.848523 33.896597 33.945203 33.994278 34.043860 34.093878 34.144363 34.195237 34.246527 34.298150 34.350126 34.402365 34.454885 34.507588 34.560487 34.613480 34.666575 34.719665 34.772756 34.825735 34.878605 34.931251 34.983674 35.035755 35.087493 35.138771 35.189585 35.239817 35.289462 35.338406 35.386643 35.434062 35.480655 35.526317 35.571041 35.614724 35.657364 35.698862 35.739216 35.778336 35.816221 35.852786 35.888033 35.921885 35.954344 35.985343 36.014883 36.042905 36.069413 36.094353 36.117732 36.139502 36.159671 36.178198 36.195091 36.210317 36.223881 36.235760 36.245956 36.254453 36.261253 36.266344 36.269729 36.271402 36.271362 36.269611 36.266147 36.260977 36.254099 36.245524 36.235250 36.223294 36.209653 36.194351 36.177383 36.158781 36.138539 36.116696 36.093246 36.068236 36.041660 36.013573 35.983968 35.952908 35.920389 35.886481 35.851182 35.814567 35.776637 35.737477 35.697086 35.655557 35.612892 35.569190 35.524453 35.478787 35.432196 35.384789 35.336571 35.287657 35.238052 35.187871 35.137120 35.085918 35.034268 34.982290 34.929985 34.877473 34.824752 34.771941 34.719037 34.666152 34.613282 34.560537 34.507906 34.455496 34.403292 34.351394 34.299784 34.248556 34.197687 34.147264 34.097259 34.047753 33.998714 33.950214 33.902217 33.854787 33.807885 33.761568 33.715790 33.670602 33.625956 33.581893 33.538364 33.495401 33.452953 33.411043 33.369621 33.328702 33.288233 33.248223 33.208619 33.169423 33.130581 33.092089 33.053896 33.015989 32.978319 32.940867 32.903588 32.866456 32.829428 32.792474 32.755556
33.133333 33.191331 33.249379 33.307534 33.365841 33.424360 33.483129 33.542213 33.601640 33.661480 33.721750 33.782524 33.843810 33.905681 33.968136 34.031250 34.095009 34.159488 34.224661 34.290604 34.357278 34.424756 34.492987 34.562043 34.631859 34.702503 34.773899 34.846109 34.919046 34.992765 35.067168 35.142305 35.218065 35.294492 35.371463 35.449018 35.527021 35.605504 35.684325 35.763507 35.842899 35.922519 36.002207 36.081976 36.161658 36.241261 36.320614 36.399718 36.478399 36.556655 36.634310 36.711359 36.787625 36.863101 36.937614 37.011154 37.083551 37.154797 37.224726 37.293331 37.360451 37.426082 37.490072 37.552417 37.612976 37.671745 37.728594 37.783523 37.836412 37.887262 37.935966 37.982527 38.026849 38.068937 38.108707 38.146165 38.181238 38.213933 38.244189 38.272013 38.297354 38.320219 38.340566 38.358403 38.373698 38.386457 38.396657 38.404302 38.409380 38.411891 38.411832 38.409202 38.404007 38.396244 38.385927 38.373051 38.357640 38.339687 38.319224 38.296245 38.270792 38.242856 38.212490 38.179686 38.144507 38.106944 38.067073 38.024885 37.980468 37.933814 37.885022 37.834088 37.781120 37.726117 37.669200 37.610370 37.549757 37.487366 37.423338 37.357679 37.290540 37.221927 37.152002 37.080773 37.008406 36.934910 36.860458 36.785058 36.708887 36.631951 36.554430 36.476328 36.397824 36.318920 36.239793 36.160441 36.081039 36.001578 35.922229 35.842979 35.763991 35.685246 35.606900 35.528928 35.451476 35.374512 35.298174 35.222423 35.147385 35.073014 34.999427 34.926570 34.854548 34.783303 34.712927 34.643355 34.574667 34.506796 34.439807 34.373629 34.308316 34.243793 34.180102 34.117166 34.055015 33.993569 33.932848 33.872772 33.813347 33.754496 33.696215 33.638426 33.581114 33.524207 33.467679 33.411459 33.355514 33.299777 33.244208 33.188743 33.133333
33.511111 33.588503 33.665967 33.743565 33.821379 33.899460 33.977895 34.056726 34.136045 34.215882 34.296334 34.377416 34.459228 34.541773 34.625152 34.709354 34.794480 34.880504 34.967525 35.055502 35.144534 35.234561 35.325679 35.417813 35.511053 35.605309 35.700666 35.797015 35.894435 35.992802 36.092187 36.192449 36.293653 36.395641 36.498468 36.601965 36.706176 36.810916 36.916225 37.021902 37.127978 37.234243 37.340719 37.447185 37.553656 37.659904 37.765936 37.871520 37.976657 38.081110 38.184875 38.287716 38.389625 38.490367 38.589931 38.688087 38.784822 38.879913 38.973347 39.064908 39.154587 39.242175 39.327666 39.410865 39.491766 39.570189 39.646130 39.719422 39.790068 39.857914 39.922965 39.985084 40.044278 40.100425 40.153535 40.203502 40.250337 40.293948 40.334348 40.371459 40.405293 40.435788 40.462955 40.486743 40.507164 40.524179 40.537796 40.547992 40.554770 40.558119 40.558041 40.554535 40.547599 40.537247 40.523473 40.506303 40.485727 40.461785 40.434465 40.403819 40.369834 40.332574 40.292028 40.248272 40.201296 40.151190 40.097944 40.041665 39.982343 39.920102 39.854933 39.786975 39.716224 39.642834 39.566802 39.488298 39.407325 39.324065 39.238524 39.150897 39.061194 38.969623 38.876194 38.781126 38.684430 38.586335 38.486851 38.386212 38.284429 38.181739 38.078151 37.973904 37.869004 37.763687 37.657955 37.552043 37.445945 37.339890 37.233866 37.128095 37.022557 36.917464 36.812788 36.708730 36.605253 36.502546 36.400562 36.299476 36.199234 36.099996 36.001697 35.904483 35.808281 35.713222 35.619223 35.526399 35.434662 35.344110 35.254648 35.166357 35.079140 34.993059 34.908013 34.824050 34.741066 34.659092 34.578024 34.497876 34.418545 34.340031 34.262232 34.185133 34.108634 34.032710 33.957262 33.882252 33.807588 33.733219 33.659061 33.585051 33.511111
33.888889 33.985731 34.082657 34.179764 34.277123 34.374840 34.472974 34.571637 34.670874 34.770803 34.871455 34.972950 35.075303 35.178639 35.282953 35.388372 35.494872 35.602580 35.711454 35.821617 35.933008 36.045748 36.159754 36.275142 36.391808 36.509864 36.629183 36.749869 36.871777 36.995001 37.119374 37.244981 37.371637 37.499415 37.628111 37.757788 37.888222 38.019466 38.151280 38.283706 38.416487 38.549656 38.682943 38.816368 38.949654 39.082811 39.215552 39.347879 39.479500 39.610411 39.740317 39.869207 39.996788 40.123045 40.247688 40.370702 40.491800 40.610967 40.727928 40.842666 40.954919 41.064672 41.171676 41.275921 41.377173 41.475425 41.570461 41.662279 41.750680 41.835666 41.917059 41.994864 42.068921 42.139240 42.205680 42.268253 42.326837 42.381446 42.431976 42.478442 42.520758 42.558938 42.592912 42.622694 42.648230 42.669531 42.686559 42.699323 42.707799 42.711992 42.711894 42.707505 42.698834 42.685875 42.668652 42.647156 42.621427 42.591453 42.557288 42.518919 42.476416 42.429765 42.379052 42.324262 42.265502 42.202755 42.136146 42.065663 41.991447 41.913488 41.831949 41.746823 41.658291 41.566351 41.471203 41.372848 41.271507 41.167185 41.060119 40.950318 40.838035 40.723284 40.606331 40.487192 40.366144 40.243206 40.118663 39.992534 39.865111 39.736410 39.606727 39.476073 39.344748 39.212754 39.080390 38.947653 38.814833 38.681921 38.549200 38.416649 38.284541 38.152845 38.021823 37.891432 37.761917 37.633226 37.505587 37.378936 37.253484 37.129156 37.006143 36.884360 36.763978 36.644902 36.527283 36.411017 36.296234 36.182822 36.070890 35.960320 35.851200 35.743406 35.637007 35.531874 35.428056 35.325422 35.224002 35.123663 35.024416 34.926131 34.828800 34.732294 34.636589 34.541560 34.447167 34.353290 34.259875 34.166807 34.074020 33.981407 33.888889
34.266667 34.383022 34.499486 34.616154 34.733146 34.850542 34.968474 35.087003 35.206270 35.326319 35.447296 35.569226 35.692259 35.816400 35.941801 36.068446 36.196488 36.325887 36.456795 36.589148 36.723096 36.858551 36.995656 37.134299 37.274617 37.416474 37.559997 37.705024 37.851674 37.999760 38.149389 38.300351 38.452739 38.606321 38.761177 38.917050 39.074011 39.231779 39.390411 39.549610 39.709417 39.869517 40.029941 40.190359 40.350788 40.510889 40.670667 40.829775 40.988209 41.145616 41.301985 41.456963 41.610533 41.762342 41.912373 42.060277 42.206034 42.349307 42.490076 42.628017 42.763110 42.895047 43.023814 43.149118 43.270951 43.389040 43.503381 43.613725 43.720072 43.822194 43.920099 44.013581 44.102651 44.187129 44.267029 44.342193 44.412637 44.478228 44.538982 44.594787 44.645660 44.691509 44.732350 44.768112 44.798808 44.824385 44.844853 44.860178 44.870367 44.875401 44.875284 44.870015 44.859593 44.844034 44.823333 44.797524 44.766597 44.730606 44.689535 44.643460 44.592363 44.536337 44.475363 44.409558 44.338901 44.263530 44.183428 44.098753 44.009492 43.915827 43.817747 43.715458 43.608954 43.498464 43.383988 43.265777 43.143837 43.018441 42.889600 42.757607 42.622477 42.484522 42.343762 42.200522 42.054826 41.907012 41.757103 41.605448 41.452067 41.297317 41.141214 40.984117 40.826037 40.667332 40.508005 40.348409 40.188538 40.028738 39.868992 39.709634 39.550635 39.392315 39.234632 39.077889 38.922031 38.767343 38.613754 38.461528 38.310583 38.161160 38.013162 37.866808 37.721989 37.578898 37.437415 37.297710 37.159651 37.023383 36.888766 36.755920 36.624697 36.495193 36.367254 36.240951 36.116128 35.992831 35.870902 35.750365 35.631061 35.512991 35.396000 35.280067 35.165040 35.050880 34.937440 34.824661 34.712404 34.600593 34.489099 34.377830 34.266667
34.644444 34.780396 34.916467 35.052792 35.189474 35.326660 35.464436 35.602958 35.742291 35.882601 36.023930 36.166452 36.310185 36.455306 36.601808 36.749872 36.899464 37.050763 37.203709 37.358479 37.514986 37.673400 37.833606 37.995766 38.159738 38.325675 38.493404 38.663069 38.834466 39.007727 39.182621 39.359265 39.537400 39.717128 39.898162 40.080590 40.264099 40.448761 40.634239 40.820589 41.007455 41.194874 41.382472 41.570275 41.757890 41.945329 42.132190 42.318472 42.503766 42.688060 42.870941 43.052390 43.231995 43.409732 43.585192 43.758350 43.928805 44.096532 44.261144 44.422615 44.580577 44.735007 44.885555 45.032207 45.174632 45.312823 45.446474 45.575584 45.699874 45.819349 45.933756 46.043107 46.147177 46.245981 46.339323 46.427222 46.509508 46.586201 46.657159 46.722402 46.781813 46.835412 46.883103 46.924905 46.960747 46.990642 47.014541 47.032453 47.044349 47.050233 47.050097 47.043940 47.031773 47.013589 46.989420 46.959254 46.923144 46.881074 46.833118 46.779256 46.719585 46.654083 46.582872 46.505927 46.423396 46.335256 46.241679 46.142646 46.038355 45.928790 45.814179 45.694510 45.570038 45.440758 45.306950 45.168618 45.026068 44.879310 44.728675 44.574179 44.416176 44.254688 44.090087 43.922400 43.752017 43.578964 43.403646 43.226089 43.046706 42.865521 42.682953 42.499020 42.314141 42.128327 41.941994 41.755143 41.568182 41.381100 41.194294 41.007740 40.821819 40.636493 40.452124 40.268659 40.086438 39.905392 39.725840 39.547693 39.371246 39.196396 39.023410 38.852168 38.682911 38.515505 38.350161 38.186733 38.025403 37.866013 37.708716 37.553346 37.400025 37.248579 37.099103 36.951417 36.805588 36.661432 36.518989 36.378074 36.238700 36.100684 35.964014 35.828509 35.694134 35.560713 35.428189 35.296393 35.165248 35.034595 34.904335 34.774324 34.644444
35.022222 35.177857 35.333637 35.489693 35.646184 35.803220 35.960976 36.119538 36.279091 36.439699 36.601555 36.764695 36.929321 37.095440 37.263256 37.432750 37.604125 37.777330 37.952569 38.129759 38.309099 38.490473 38.674073 38.859752 39.047692 39.237712 39.429981 39.624288 39.820787 40.019231 40.219763 40.422103 40.626374 40.832266 41.039886 41.248892 41.459373 41.670959 41.883719 42.097258 42.311628 42.526409 42.741637 42.956871 43.172131 43.386961 43.601366 43.814878 44.027490 44.238728 44.448573 44.656551 44.862634 45.066352 45.267674 45.466135 45.661703 45.853927 46.042776 46.227815 46.409017 46.585969 46.758647 46.926664 47.090005 47.248306 47.401562 47.549439 47.691938 47.828757 47.959905 48.085110 48.204387 48.317499 48.424464 48.525074 48.619354 48.707126 48.788416 48.863074 48.931126 48.992451 49.047074 49.094898 49.135945 49.170144 49.197512 49.218003 49.231625 49.238357 49.238202 49.231160 49.217228 49.196429 49.168753 49.134247 49.092894 49.044766 48.989841 48.928217 48.859867 48.784916 48.703337 48.615280 48.520720 48.419835 48.312602 48.199231 48.079701 47.954253 47.822873 47.685833 47.543126 47.395055 47.241622 47.083160 46.919677 46.751539 46.578762 46.401737 46.220487 46.035430 45.846593 45.654416 45.458929 45.260590 45.059430 44.855919 44.650089 44.442416 44.232927 44.022103 43.809964 43.596989 43.383187 43.169031 42.954518 42.740109 42.525787 42.311997 42.098706 41.886340 41.674847 41.464632 41.255624 41.048200 40.842273 40.638192 40.435849 40.235564 40.037212 39.841080 39.647027 39.455307 39.265763 39.078617 38.893697 38.711191 38.530916 38.353027 38.177330 38.003947 37.832677 37.663609 37.496536 37.331518 37.168344 37.007042 36.847401 36.689422 36.532895 36.377791 36.223908 36.071190 35.919442 35.768582 35.618425 35.468868 35.319737 35.170908 35.022222
35.400000 35.575425 35.751006 35.926917 36.103292 36.280322 36.458118 36.636884 36.816705 36.997796 37.180213 37.364180 37.549723 37.737070 37.926217 38.117393 38.310560 38.505948 38.703484 38.903393 39.105567 39.310225 39.517220 39.726764 39.938672 40.153144 40.369958 40.589298 40.810905 41.034948 41.261129 41.489599 41.720026 41.952538 42.186768 42.422826 42.660310 42.899309 43.139391 43.380622 43.622544 43.865201 44.108111 44.351300 44.594264 44.837011 45.079023 45.320291 45.560288 45.798991 46.035867 46.270886 46.503514 46.733714 46.960958 47.185206 47.405942 47.623126 47.836260 48.045306 48.249787 48.449672 48.644508 48.834274 49.018546 49.197309 49.370175 49.537138 49.697842 49.852291 50.000166 50.141478 50.275943 50.403582 50.524144 50.637656 50.743902 50.842912 50.934503 51.018707 51.095372 51.164529 51.226057 51.279983 51.326215 51.364774 51.395597 51.418699 51.434041 51.441632 51.441458 51.433521 51.417832 51.394385 51.363217 51.324314 51.277740 51.223473 51.161607 51.092115 51.015118 50.930585 50.838670 50.739341 50.632781 50.518962 50.398100 50.270169 50.135422 49.993837 49.845703 49.691006 49.530069 49.362890 49.189825 49.010881 48.826451 48.636550 48.441603 48.241636 48.037103 47.828036 47.614918 47.397785 47.177143 46.953031 46.725971 46.496003 46.263662 46.028985 45.792512 45.554274 45.314812 45.074147 44.832815 44.590826 44.348704 44.106443 43.864554 43.623012 43.382307 43.142395 42.903743 42.666284 42.430460 42.196183 41.963861 41.733386 41.505134 41.278975 41.055251 40.833811 40.614961 40.398532 40.184791 39.973553 39.765049 39.559077 39.355830 39.155096 38.957028 38.761404 38.568343 38.377613 38.189297 38.003159 37.819247 37.637323 37.457401 37.279246 37.102838 36.927946 36.754520 36.582336 36.411315 36.241242 36.072012 35.903422 35.735343 35.567586 35.400000
35.777778 35.973103 36.168612 36.364470 36.560879 36.757977 36.955986 37.155014 37.355298 37.556916 37.760114 37.964939 38.171643 38.380240 38.590986 38.803858 39.019113 39.236691 39.456845 39.679475 39.904831 40.132772 40.363537 40.596945 40.833222 41.072148 41.313932 41.558310 41.805478 42.055128 42.307436 42.562053 42.819134 43.078290 43.339652 43.602794 43.867823 44.134277 44.402238 44.671212 44.941258 45.211850 45.483025 45.754234 46.025492 46.296228 46.566438 46.835539 47.103510 47.369757 47.634247 47.896385 48.156128 48.412883 48.666604 48.916707 49.163145 49.405350 49.643276 49.876380 50.104618 50.327474 50.544915 50.756455 50.962070 51.161310 51.354160 51.540210 51.719457 51.891527 52.056428 52.213829 52.363745 52.505884 52.640272 52.766653 52.885058 52.995272 53.097326 53.191041 53.276450 53.353407 53.421943 53.481943 53.533434 53.576333 53.610660 53.636361 53.653447 53.661892 53.661700 53.652872 53.635403 53.609321 53.574612 53.531334 53.479464 53.419088 53.350178 53.272851 53.187075 53.092997 52.990584 52.880018 52.761265 52.634544 52.499825 52.357364 52.207135 52.049434 51.884245 51.711902 51.532397 51.346108 51.153037 50.953599 50.747808 50.536119 50.318557 50.095610 49.867314 49.634190 49.396280 49.154135 48.907801 48.657850 48.404333 48.147838 47.888413 47.626657 47.362614 47.096886 46.829508 46.561081 46.291625 46.021734 45.751411 45.481236 45.211195 44.941845 44.673150 44.405646 44.139273 43.874535 43.611351 43.350191 43.090950 42.834062 42.579398 42.327355 42.077778 41.831026 41.586923 41.345786 41.107417 40.872094 40.639600 40.410170 40.183572 39.960001 39.739210 39.521352 39.306174 39.093784 38.883924 38.676663 38.471739 38.269183 38.068731 37.870380 37.673867 37.479154 37.285985 37.094289 36.903819 36.714473 36.526015 36.338316 36.151155 35.964376 35.777778
36.155556 36.370911 36.586459 36.802415 37.018947 37.236290 37.454582 37.674076 37.894877 38.117250 38.341269 38.567206 38.795100 39.025229 39.257592 39.492471 39.729824 39.969930 40.212706 40.458427 40.706965 40.958587 41.213120 41.470819 41.731466 41.995302 42.262059 42.531962 42.804698 43.080469 43.358917 43.640222 43.923980 44.210345 44.498871 44.789686 45.082302 45.376820 45.672714 45.970057 46.268289 46.567457 46.866970 47.166850 47.466481 47.765862 48.064358 48.361948 48.657982 48.952425 49.244619 49.534518 49.821464 50.105401 50.385682 50.662246 50.934460 51.202265 51.465048 51.722756 51.974804 52.221145 52.461228 52.695017 52.921999 53.142149 53.354994 53.560525 53.758309 53.948351 54.130263 54.304061 54.469402 54.626311 54.774490 54.913971 55.044498 55.166108 55.278586 55.381971 55.476086 55.560969 55.636478 55.702648 55.759371 55.806677 55.844489 55.872827 55.891648 55.900961 55.900751 55.891019 55.871781 55.843024 55.804796 55.757075 55.699938 55.633356 55.557439 55.472151 55.377635 55.273853 55.160983 55.038986 54.908080 54.768228 54.619686 54.462424 54.296742 54.122615 53.940388 53.750047 53.551981 53.346188 53.133103 52.912735 52.685562 52.451609 52.211394 51.964954 51.712845 51.455114 51.192351 50.924611 50.652514 50.376118 50.096063 49.812411 49.525817 49.236338 48.944638 48.650765 48.355386 48.058535 47.760874 47.462420 47.163821 46.865077 46.566816 46.269013 45.972272 45.676544 45.382402 45.089772 44.799190 44.510556 44.224368 43.940498 43.659405 43.380932 43.105495 42.832913 42.563557 42.297221 42.034230 41.774358 41.517884 41.264562 41.014625 40.767812 40.524309 40.283842 40.046553 39.812158 39.580756 39.352056 39.126113 38.902636 38.681639 38.462831 38.246186 38.031419 37.818467 37.607052 37.397077 37.188275 36.980516 36.773550 36.567215 36.361279 36.155556
36.533333 36.768847 37.004587 37.240749 37.477582 37.715256 37.954037 38.194062 38.435614 38.678792 38.923894 39.170981 39.420356 39.672040 39.926343 40.183242 40.443045 40.705687 40.971470 41.240282 41.512420 41.787722 42.066473 42.348463 42.633962 42.922708 43.214953 43.510385 43.809235 44.111139 44.416305 44.724318 45.035358 45.348964 45.665286 45.983816 46.304676 46.627312 46.951817 47.277595 47.604710 47.932532 48.261092 48.589731 48.918455 49.246577 49.574081 49.900260 50.225080 50.547822 50.868433 51.186195 51.501043 51.812261 52.119780 52.422896 52.721537 53.015022 53.303282 53.585663 53.862103 54.131981 54.395249 54.651324 54.900170 55.141250 55.374543 55.599556 55.816285 56.024287 56.223570 56.413741 56.594821 56.766465 56.928706 57.081245 57.224122 57.357084 57.480175 57.593185 57.696159 57.788925 57.871527 57.943831 58.005875 58.057559 58.098913 58.129873 58.150456 58.160631 58.160404 58.149775 58.128739 58.097327 58.055521 58.003386 57.940895 57.868145 57.785101 57.691895 57.588486 57.475046 57.351530 57.218150 57.074861 56.921920 56.759285 56.587259 56.405808 56.215281 56.015656 55.807331 55.590296 55.364999 55.131445 54.890130 54.641076 54.384824 54.121413 53.851429 53.574922 53.292519 53.004281 52.710870 52.412354 52.109424 51.802152 51.491248 51.176783 50.859481 50.539408 50.217291 49.893185 49.567816 49.241220 48.914114 48.586515 48.259121 47.931924 47.605597 47.280107 46.956096 46.633502 46.312931 45.994289 45.678145 45.364373 45.053497 44.745364 44.440449 44.138569 43.840153 43.544991 43.253460 42.965326 42.680915 42.399971 42.122770 41.849036 41.578994 41.312353 41.049288 40.789496 40.533103 40.279797 40.029658 39.782367 39.537961 39.296119 39.056833 38.819787 38.584931 38.351956 38.120771 37.891079 37.662753 37.435508 37.209186 36.983519 36.758316 36.533333
36.911111 37.166935 37.422991 37.679536 37.936774 38.194984 38.454334 38.715126 38.977490 39.241740 39.507970 39.776503 40.047389 40.320961 40.597221 40.876505 41.158768 41.444343 41.733135 42.025473 42.321208 42.620659 42.923626 43.230410 43.540759 43.854955 44.172691 44.494227 44.819200 45.147846 45.479746 45.815109 46.153460 46.494979 46.839139 47.186085 47.535243 47.886724 48.239907 48.594870 48.950949 49.308190 49.665892 50.024070 50.381990 50.739640 51.096264 51.451823 51.805543 52.157368 52.506515 52.852912 53.195777 53.535028 53.869894 54.200288 54.525456 54.845316 55.159138 55.466846 55.767748 56.061776 56.348279 56.627206 56.897949 57.160475 57.414228 57.659190 57.894858 58.121234 58.337866 58.544773 58.741558 58.928252 59.104510 59.270375 59.425552 59.570089 59.703742 59.826559 59.938341 60.039136 60.128785 60.207333 60.274659 60.330800 60.375670 60.409297 60.431630 60.442682 60.442438 60.430897 60.408077 60.373964 60.328608 60.271984 60.204176 60.125149 60.035024 59.933756 59.821506 59.698226 59.564117 59.419128 59.263509 59.097211 58.920530 58.733424 58.536241 58.328950 58.111951 57.885226 57.649229 57.403961 57.149928 56.887149 56.616183 56.337066 56.050411 55.756268 55.455296 55.147563 54.833767 54.513988 54.188959 53.858765 53.524169 53.185258 52.842811 52.496911 52.148351 51.797202 51.444258 51.089576 50.733940 50.377390 50.020692 49.663862 49.307642 48.952019 48.597706 48.244657 47.893549 47.544304 47.197557 46.853195 46.511806 46.173246 45.838052 45.506046 45.177716 44.852850 44.531883 44.214575 43.901305 43.591808 43.286408 42.984815 42.687299 42.393551 42.103787 41.817683 41.535399 41.256600 40.981396 40.709445 40.440804 40.175128 39.912428 39.652358 39.394883 39.139664 38.886621 38.635424 38.385952 38.137889 37.891076 37.645214 37.400110 37.155484 36.911111
37.288889 37.565169 37.841715 38.118764 38.396608 38.675450 38.955606 39.237238 39.520681 39.806058 40.093716 40.383734 40.676468 40.971949 41.270539 41.572219 41.877350 42.185862 42.498111 42.813971 43.133789 43.457383 43.785088 44.116662 44.452421 44.792067 45.135892 45.483537 45.835270 46.190672 46.549980 46.912717 47.279088 47.648558 48.021296 48.396711 48.774938 49.155333 49.537992 49.922223 50.308087 50.694847 51.082527 51.470355 51.858322 52.245622 52.632220 53.017288 53.400763 53.781805 54.160331 54.535496 54.907206 55.274619 55.637634 55.995425 56.347891 56.694230 57.034346 57.367472 57.693521 58.011769 58.322144 58.623970 58.917194 59.201192 59.475932 59.740847 59.995926 60.240660 60.475058 60.698669 60.911519 61.113217 61.303802 61.482938 61.650675 61.806730 61.951157 62.083724 62.204486 62.313255 62.410085 62.494830 62.567536 62.628096 62.676547 62.712818 62.736932 62.748854 62.748594 62.736150 62.711515 62.674724 62.625755 62.564678 62.491457 62.406201 62.308862 62.199588 62.078326 61.945265 61.800349 61.643813 61.475603 61.296004 61.104966 60.902829 60.689552 60.465531 60.230740 59.985633 59.730202 59.464961 59.189920 58.905652 58.612190 58.310163 57.999624 57.681256 57.355131 57.021982 56.681895 56.335644 55.983328 55.625756 55.263031 54.895987 54.524726 54.150101 53.772205 53.391895 53.009255 52.625135 52.239600 51.853488 51.466837 51.080465 50.694379 50.309368 49.925405 49.543242 49.162817 48.784838 48.409207 48.036583 47.666830 47.300554 46.937585 46.578473 46.223011 45.871692 45.524275 45.181197 44.842184 44.507614 44.177187 43.851220 43.529391 43.211956 42.898576 42.589448 42.284217 41.983025 41.685505 41.391745 41.101373 40.814421 40.530517 40.249644 39.971431 39.695812 39.422426 39.151161 38.881668 38.613792 38.347200 38.081699 37.816976 37.552802 37.288889
37.666667 37.963570 38.260746 38.558497 38.857061 39.156767 39.457814 39.760553 40.065142 40.371946 40.681079 40.992919 41.307529 41.625296 41.946231 42.270723 42.598728 42.930632 43.266333 43.606211 43.950105 44.298380 44.650814 45.007756 45.368922 45.734636 46.104550 46.478965 46.857467 47.240324 47.627061 48.017912 48.412337 48.810534 49.211901 49.616596 50.023960 50.434110 50.846331 51.260700 51.676450 52.093620 52.511398 52.929784 53.347929 53.765799 54.182515 54.598013 55.011392 55.422566 55.830624 56.235459 56.636163 57.032617 57.423923 57.809960 58.189852 58.563481 58.930002 59.289308 59.640595 59.983773 60.318088 60.643467 60.959214 61.265278 61.561023 61.846425 62.120908 62.384473 62.636608 62.877335 63.106207 63.323263 63.528118 63.720824 63.901056 64.068876 64.224011 64.366527 64.496205 64.613106 64.717059 64.808120 64.886159 64.951222 65.003220 65.042184 65.068063 65.080872 65.080596 65.067233 65.040801 65.001285 64.948737 64.883124 64.804539 64.712934 64.608442 64.491003 64.360795 64.217752 64.062098 63.893767 63.713033 63.519833 63.314498 63.096974 62.867649 62.626486 62.373933 62.109972 61.835116 61.549366 61.253303 60.946950 60.630952 60.305358 59.970871 59.627565 59.276200 58.916869 58.550382 58.176848 57.797120 57.411317 57.020325 56.624265 56.224047 55.819788 55.412410 55.002019 54.589538 54.175055 53.759482 53.342885 52.926155 52.509327 52.093264 51.677966 51.264259 50.852105 50.442286 50.034724 49.630150 49.228445 48.830286 48.435512 48.044743 47.657777 47.275173 46.896692 46.522829 46.153310 45.788567 45.428295 45.072860 44.721931 44.375810 44.034143 43.697168 43.364511 43.036352 42.712301 42.392478 42.076485 41.764383 41.455770 41.150651 40.848626 40.549647 40.253319 39.959544 39.667938 39.378356 39.090428 38.803965 38.518620 38.234161 37.950265 37.666667