# vtk DataFile Version 3.0
Steady-state temperature (Jacobi)
ASCII
DATASET STRUCTURED_POINTS
DIMENSIONS 181 181 1
ORIGIN 0.0 0.0 0.0
SPACING 0.05 0.05 1.0
POINT_DATA 32761
SCALARS Temperature float 1
LOOKUP_TABLE default
32.000000 32.000000 32.000000 32.000000 32.000000 32.000000 32.000000 32.000000
32.000000 32.000000 32.000000 32.000000 32.000000 32.000000 32.000000 32.000000
32.000000 32.000000 32.000000 32.000000 32.000000 32.000000 32.000000 32.000000
32.000000 32.000000 32.000000 32.000000 32.000000 32.000000 32.000000 32.000000
32.000000 32.000000 32.000000 32.000000 32.000000 32.000000 32.000000 32.000000
32.000000 32.000000 32.000000 32.000000 32.000000 32.000000 32.000000 32.000000
32.000000 32.000000 32.000000 32.000000 32.000000 32.000000 32.000000 32.000000
32.000000 32.000000 32.000000 32.000000 32.000000 32.000000 32.000000 32.000000
32.000000 32.000000 32.000000 32.000000 32.000000 32.000000 32.000000 32.000000
32.000000 32.000000 32.000000 32.000000 32.000000 32.000000 32.000000 32.000000
32.000000 32.000000 32.000000 32.000000 32.000000 32.000000 32.000000 32.000000
32.000000 32.000000 32.000000 32.000000 32.000000 32.000000 32.000000 32.000000
32.000000 32.000000 32.000000 32.000000 32.000000 32.000000 32.000000 32.000000
32.000000 32.000000 32.000000 32.000000 32.000000 32.000000 32.000000 32.000000
32.000000 32.000000 32.000000 32.000000 32.000000 32.000000 32.000000 32.000000
32.000000 32.000000 32.000000 32.000000 32.000000 32.000000 32.000000 32.000000
32.000000 32.000000 32.000000 32.000000 32.000000 32.000000 32.000000 32.000000
32.000000 32.000000 32.000000 32.000000 32.000000 32.000000 32.000000 32.000000
32.000000 32.000000 32.000000 32.000000 32.000000 32.000000 32.000000 32.000000
32.000000 32.000000 32.000000 32.000000 32.000000 32.000000 32.000000 32.000000
32.000000 32.000000 32.000000 32.000000 32.000000 32.000000 32.000000 32.000000
32.000000 32.000000 32.000000 32.000000 32.000000 32.000000 32.000000 32.000000
32.000000 32.000000 32.000000 32.000000 32.000000
32.377778 32.387127 32.396503 32.405935 32.415444 32.425066 32.434816 32.444732
32.454825 32.465136 32.475671 32.486473 32.497542 32.508923 32.520610 32.532651
32.545033 32.557805 32.570948 32.584511 32.598469 32.612873 32.627690 32.642970
32.658675 32.674854 32.691462 32.708548 32.726061 32.744047 32.762450 32.781315
32.800578 32.820283 32.840362 32.860855 32.881689 32.902902 32.924415 32.946266
32.968370 32.990763 33.013356 33.036182 33.059150 33.082292 33.105512 33.128840
33.152180 33.175560 33.198883 33.222174 33.245337 33.268396 33.291256 33.313940
33.336353 33.358518 33.380345 33.401853 33.422957 33.443675 33.463925 33.483728
33.503003 33.521772 33.539959 33.557586 33.574584 33.590971 33.606685 33.621746
33.636096 33.649753 33.662668 33.674856 33.686275 33.696938 33.706809 33.715901
33.724183 33.731666 33.738325 33.744169 33.749179 33.753362 33.756705 33.759212
33.760874 33.761695 33.761672 33.760804 33.759095 33.756541 33.753151 33.748920
33.743862 33.737969 33.731260 33.723727 33.715394 33.706249 33.696325 33.685607
33.674134 33.661889 33.648916 33.635200 33.620790 33.605667 33.589890 33.573439
33.556376 33.538683 33.520428 33.501591 33.482246 33.462373 33.442052 33.421261
33.400086 33.378505 33.356606 33.334368 33.311882 33.289127 33.266196 33.243067
33.219836 33.196478 33.173091 33.149649 33.126249 33.102865 33.079592 33.056403
33.033391 33.010525 32.987899 32.965480 32.943356 32.921492 32.899973 32.878764
32.857943 32.837472 32.817426 32.797764 32.778557 32.759760 32.741439 32.723548
32.706145 32.689184 32.672717 32.656697 32.641168 32.626082 32.611479 32.597308
32.583604 32.570315 32.557470 32.545017 32.532978 32.521304 32.510008 32.499042
32.488415 32.478081 32.468040 32.458249 32.448704 32.439363 32.430216 32.421224
32.412373 32.403627 32.394966 32.386358 32.377778
32.755556 32.774275 32.793050 32.811930 32.830978 32.850233 32.869767 32.889607
32.909833 32.930460 32.951573 32.973179 32.995365 33.018126 33.041554 33.065632
33.090455 33.115993 33.142343 33.169462 33.197448 33.226246 33.255954 33.286504
33.317993 33.350340 33.383641 33.417801 33.452915 33.488876 33.525775 33.563492
33.602116 33.641515 33.681773 33.722747 33.764519 33.806934 33.850068 33.893759
33.938077 33.982852 34.028150 34.073792 34.119842 34.166115 34.212669 34.259315
34.306109 34.352859 34.399617 34.446190 34.492626 34.538735 34.584562 34.629919
34.674851 34.719171 34.762924 34.805930 34.848232 34.889657 34.930247 34.969840
35.008475 35.045999 35.082452 35.117693 35.151759 35.184520 35.216014 35.246121
35.274879 35.302181 35.328062 35.352426 35.375307 35.396622 35.416401 35.434575
35.451169 35.466126 35.479469 35.491150 35.501189 35.509550 35.516247 35.521257
35.524589 35.526230 35.526184 35.524449 35.521024 35.515920 35.509128 35.500671
35.490536 35.478757 35.465316 35.450258 35.433561 35.415283 35.395397 35.373973
35.350981 35.326504 35.300508 35.273088 35.244209 35.213979 35.182359 35.149470
35.115274 35.079901 35.043312 35.005651 34.966877 34.927144 34.886411 34.844842
34.802396 34.759245 34.715347 34.670882 34.625806 34.580306 34.534336 34.488088
34.441515 34.394809 34.347922 34.301048 34.254135 34.207377 34.160718 34.114349
34.068211 34.022492 33.977127 33.932299 33.887940 33.844224 33.801079 33.758672
33.716925 33.675996 33.635803 33.596492 33.557979 33.520399 33.483663 33.447893
33.412998 33.379090 33.346071 33.314042 33.282905 33.252745 33.223463 33.195133
33.167654 33.141086 33.115330 33.090432 33.066295 33.042951 33.020304 32.998377
32.977073 32.956404 32.936278 32.916694 32.897564 32.878876 32.860547 32.842555
32.824823 32.807318 32.789970 32.772737 32.755556
33.133333 33.161467 33.189678 33.218059 33.246674 33.275625 33.304963 33.334800
33.365170 33.396195 33.427894 33.460395 33.493699 33.527942 33.563107 33.599335
33.636590 33.675016 33.714560 33.755367 33.797365 33.840701 33.885281 33.931254
33.978505 34.027183 34.077154 34.128561 34.181253 34.235370 34.290741 34.347501
34.405461 34.464752 34.525166 34.586828 34.649514 34.713343 34.778076 34.843824
34.910335 34.977713 35.045696 35.114379 35.183491 35.253122 35.322990 35.393182
35.463411 35.533757 35.603931 35.674007 35.743699 35.813075 35.881850 35.950093
36.017521 36.084201 36.149859 36.214558 36.278035 36.340353 36.401260 36.460816
36.518785 36.575227 36.629921 36.682924 36.734032 36.783303 36.830549 36.875826
36.918965 36.960021 36.998840 37.035476 37.069795 37.101844 37.131510 37.158834
37.183721 37.206208 37.226217 37.243779 37.258833 37.271403 37.281446 37.288978
37.293974 37.296441 37.296372 37.293765 37.288629 37.280956 37.270771 37.258058
37.242859 37.225151 37.204993 37.182355 37.157314 37.129833 37.100008 37.067796
37.033311 36.996506 36.957513 36.916280 36.872961 36.827499 36.780064 36.730601
36.679298 36.626096 36.571200 36.514552 36.456375 36.396607 36.335487 36.272955
36.209261 36.144344 36.078468 36.011571 35.943926 35.875469 35.806481 35.736895
35.666999 35.596722 35.526355 35.455823 35.385416 35.315056 35.245030 35.175255
35.106013 35.037213 34.969132 34.901673 34.835102 34.769315 34.704568 34.640749
34.578101 34.516506 34.456192 34.397032 34.339240 34.282685 34.227560 34.173729
34.121368 34.070337 34.020793 33.972590 33.925869 33.880479 33.836542 33.793906
33.752673 33.712691 33.674041 33.636574 33.600351 33.565224 33.531235 33.498241
33.466265 33.435167 33.404954 33.375492 33.346770 33.318660 33.291135 33.264078
33.237443 33.211123 33.185059 33.159153 33.133333
33.511111 33.548718 33.586439 33.624369 33.662637 33.701320 33.740563 33.780421
33.821051 33.862490 33.904903 33.948305 33.992873 34.038595 34.085657 34.134024
34.183887 34.235185 34.288114 34.342588 34.398803 34.456650 34.516324 34.577689
34.640941 34.705916 34.772808 34.841427 34.911963 34.984200 35.058322 35.134088
35.211677 35.290823 35.371696 35.454010 35.537925 35.623133 35.709787 35.797560
35.886593 35.976544 36.067547 36.159241 36.251754 36.344713 36.438237 36.531946
36.625949 36.719863 36.813789 36.907342 37.000618 37.093234 37.185280 37.276378
37.366616 37.455624 37.543487 37.629847 37.714785 37.797960 37.879452 37.958937
38.036492 38.111814 38.184980 38.255706 38.324070 38.389810 38.453002 38.513409
38.571103 38.625871 38.677784 38.726653 38.772543 38.815290 38.854955 38.891397
38.924671 38.954660 38.981410 39.004829 39.024954 39.041716 39.055142 39.065186
39.071865 39.075155 39.075062 39.071586 39.064721 39.054489 39.040875 39.023922
39.003604 38.979990 38.953042 38.922852 38.889373 38.852722 38.812845 38.769881
38.723769 38.674675 38.622531 38.567527 38.509592 38.448940 38.385497 38.319501
38.250876 38.179885 38.106449 38.030854 37.953020 37.873255 37.791478 37.708017
37.622789 37.536140 37.447987 37.358689 37.268162 37.176777 37.084448 36.991554
36.898004 36.804185 36.710001 36.615839 36.521599 36.427666 36.333933 36.240781
36.148094 36.056245 35.965111 35.875054 35.785940 35.698117 35.611443 35.526250
35.442386 35.360164 35.279422 35.200454 35.123088 35.047597 34.973802 34.901949
34.831855 34.763741 34.697416 34.633078 34.570532 34.509949 34.451131 34.394222
34.339024 34.285656 34.233919 34.183905 34.135416 34.088522 34.043028 33.998977
33.956180 33.914656 33.874223 33.834876 33.796442 33.758894 33.722069 33.685918
33.650291 33.615118 33.580261 33.545633 33.511111
33.888889 33.936059 33.983360 34.030944 34.078921 34.127460 34.176648 34.226671
34.277588 34.329602 34.382744 34.437230 34.493062 34.550467 34.609417 34.670147
34.732599 34.797013 34.863300 34.931705 35.002106 35.074748 35.149478 35.226541
35.305750 35.387348 35.471115 35.557291 35.645622 35.736342 35.829166 35.924320
36.021487 36.120886 36.222170 36.325547 36.430644 36.537657 36.646187 36.756419
36.867932 36.980900 37.094881 37.210036 37.325910 37.442652 37.559793 37.677473
37.795214 37.913146 38.030788 38.148262 38.265086 38.381376 38.496655 38.611032
38.724040 38.835785 38.945810 39.054220 39.160576 39.264978 39.367009 39.466768
39.563860 39.658384 39.749971 39.838718 39.924284 40.006765 40.085848 40.161629
40.233823 40.302522 40.367475 40.428768 40.486178 40.539788 40.589405 40.635104
40.676723 40.714326 40.747783 40.777146 40.802315 40.823330 40.840121 40.852713
40.861065 40.865190 40.865075 40.860717 40.852133 40.839306 40.822280 40.801027
40.775617 40.746011 40.712306 40.674452 40.632578 40.586619 40.536736 40.482856
40.425169 40.363594 40.298353 40.229359 40.156864 40.080777 40.001380 39.918580
39.832689 39.743610 39.651686 39.556820 39.459381 39.359271 39.256885 39.152124
39.045408 38.936636 38.826248 38.714141 38.600773 38.486037 38.370405 38.253766
38.136601 38.018794 37.900830 37.782587 37.664551 37.546592 37.429190 37.312207
37.196116 37.080768 36.966624 36.853523 36.741911 36.631615 36.523063 36.416069
36.311038 36.207774 36.106657 36.007480 35.910595 35.815785 35.723373 35.633132
35.545357 35.459811 35.376758 35.295956 35.217635 35.141548 35.067894 34.996424
34.927302 34.860279 34.795487 34.732678 34.671951 34.613063 34.556081 34.500765
34.447155 34.395017 34.344360 34.294961 34.246800 34.199667 34.153512 34.108140
34.063476 34.019339 33.975631 33.932188 33.888889
34.266667 34.323498 34.380500 34.437817 34.495646 34.554101 34.613400 34.673628
34.735022 34.797636 34.861722 34.927300 34.994638 35.063720 35.134823 35.207899
35.283231 35.360733 35.440696 35.522994 35.607923 35.695315 35.785469 35.878179
35.973738 36.071903 36.172964 36.276637 36.383206 36.492348 36.604339 36.718818
36.836050 36.955640 37.077841 37.202222 37.329023 37.457782 37.588725 37.721362
37.855905 37.991837 38.129355 38.267922 38.407722 38.548199 38.689524 38.831128
38.973172 39.115078 39.256995 39.398345 39.539268 39.679187 39.818235 39.955844
40.092141 40.226572 40.359259 40.489666 40.617913 40.743486 40.866503 40.986476
41.103524 41.217187 41.327582 41.434283 41.537407 41.636560 41.731857 41.822942
41.909925 41.992488 42.070735 42.144385 42.213538 42.277948 42.337706 42.392605
42.442725 42.487894 42.528181 42.563449 42.593755 42.618995 42.639210 42.654334
42.664390 42.669345 42.669206 42.663974 42.653639 42.638235 42.617737 42.592212
42.561619 42.526059 42.485476 42.440006 42.389580 42.334369 42.274293 42.209558
42.140075 42.066086 41.987494 41.904578 41.817235 41.725782 41.630109 41.530573
41.427059 41.319961 41.209162 41.095088 40.977625 40.857230 40.733787 40.607785
40.479106 40.348265 40.215143 40.080277 39.943547 39.805509 39.666037 39.525700
39.384368 39.242620 39.100316 38.958038 38.815640 38.673701 38.532063 38.391298
38.251238 38.112442 37.974727 37.838637 37.703976 37.571265 37.440294 37.311560
37.184838 37.060597 36.938597 36.819276 36.702382 36.588319 36.476823 36.368261
36.262359 36.159448 36.059244 35.962040 35.867545 35.776015 35.687152 35.601174
35.517780 35.437149 35.358980 35.283414 35.210153 35.139298 35.070557 35.003994
34.939324 34.876576 34.815474 34.756012 34.697928 34.641181 34.585525 34.530886
34.477038 34.423874 34.371188 34.318847 34.266667
34.644444 34.711068 34.777876 34.845084 34.912846 34.981401 35.050871 35.121518
35.193427 35.266883 35.341931 35.418874 35.497718 35.578779 35.662022 35.747775
35.835960 35.926914 36.020512 36.117098 36.216503 36.319073 36.424591 36.533404
36.645248 36.760467 36.878751 37.000437 37.125170 37.253277 37.384361 37.518735
37.655959 37.796334 37.939378 38.085378 38.233814 38.384955 38.538245 38.693939
38.851447 39.011007 39.172004 39.334656 39.498325 39.663215 39.828669 39.994878
40.161171 40.327725 40.493866 40.659758 40.824727 40.988926 41.151689 41.313163
41.472693 41.630421 41.785709 41.938696 42.088770 42.236065 42.379999 42.520706
42.657634 42.790919 42.920044 43.045145 43.165744 43.281975 43.393403 43.500157
43.601847 43.698596 43.790057 43.876349 43.957167 44.032621 44.102450 44.166753
44.225311 44.278212 44.325277 44.366578 44.401979 44.431535 44.455148 44.472857
44.484603 44.490405 44.490244 44.484118 44.472048 44.454013 44.430072 44.400184
44.364448 44.322807 44.275398 44.222147 44.163232 44.098565 44.028367 43.952535
43.871331 43.784645 43.692782 43.595621 43.493512 43.386329 43.274464 43.157787
43.036733 42.911169 42.781573 42.647810 42.510397 42.369199 42.224769 42.076972
41.926395 41.772901 41.617106 41.458872 41.298838 41.136864 40.973606 40.808919
40.643474 40.477117 40.310527 40.143539 39.976833 39.810234 39.644416 39.479190
39.315219 39.152299 38.991077 38.831332 38.673687 38.517908 38.364589 38.213477
38.065137 37.919300 37.776494 37.636433 37.499609 37.365721 37.235220 37.107790
36.983841 36.863045 36.745767 36.631671 36.521077 36.413642 36.309639 36.208720
36.111116 36.016475 35.924983 35.836289 35.750534 35.667373 35.586901 35.508781
35.433065 35.359427 35.287877 35.218103 35.150073 35.083493 35.018293 34.954197
34.891099 34.828744 34.766994 34.705618 34.644444
35.022222 35.098774 35.175556 35.252762 35.330655 35.409391 35.489262 35.570383
35.653072 35.737401 35.823710 35.912028 36.002712 36.095743 36.191494 36.289900
36.391342 36.495705 36.603380 36.714200 36.828560 36.946240 37.067637 37.192478
37.321157 37.453348 37.589439 37.729053 37.872567 38.019554 38.170377 38.324560
38.482452 38.643527 38.808119 38.975657 39.146455 39.319899 39.496286 39.674961
39.856202 40.039321 40.224574 40.411245 40.599571 40.788812 40.979187 41.169939
41.361272 41.552416 41.743562 41.933937 42.123719 42.312140 42.499367 42.684643
42.868130 43.049088 43.227672 43.403169 43.575730 43.744672 43.910146 44.071504
44.228896 44.381714 44.530109 44.673516 44.812085 44.945297 45.073303 45.195630
45.312424 45.423265 45.528292 45.627133 45.719921 45.806333 45.886491 45.960120
46.027331 46.087895 46.141907 46.189187 46.229809 46.263640 46.290735 46.311004
46.324482 46.331123 46.330939 46.323929 46.310082 46.289441 46.261972 46.227764
46.186759 46.139093 46.084688 46.023724 45.956107 45.882063 45.801483 45.714641
45.621413 45.522123 45.416637 45.305327 45.188054 45.065237 44.936733 44.803011
44.663923 44.519987 44.371055 44.217691 44.059745 43.897827 43.731786 43.562273
43.389135 43.213061 43.033898 42.852362 42.668299 42.482451 42.294659 42.105683
41.915356 41.724451 41.532791 41.341153 41.149349 40.958153 40.767361 40.577739
40.389068 40.202094 40.016582 39.833255 39.651859 39.473089 39.296670 39.123263
38.952575 38.785228 38.620908 38.460198 38.302764 38.149144 37.998986 37.852781
37.710164 37.571575 37.436637 37.305738 37.178490 37.055233 36.935570 36.819789
36.707490 36.598907 36.493642 36.391876 36.293214 36.197788 36.105208 36.015556
35.928453 35.843931 35.761627 35.681526 35.603279 35.526829 35.451847 35.378231
35.305679 35.234047 35.163058 35.092533 35.022222
35.400000 35.486652 35.573545 35.660956 35.749086 35.838246 35.928594 36.020470
36.113986 36.209510 36.307102 36.407154 36.509676 36.615078 36.723315 36.834813
36.949472 37.067727 37.189422 37.314998 37.444243 37.577598 37.714792 37.856267
38.001691 38.151500 38.305303 38.463528 38.625725 38.792310 38.962775 39.137521
39.315983 39.498546 39.684592 39.874483 40.067553 40.264143 40.463540 40.666062
40.870955 41.078514 41.287949 41.499533 41.712445 41.926938 42.142167 42.358365
42.574671 42.791302 43.007389 43.223132 43.437663 43.651171 43.862795 44.072716
44.280089 44.485087 44.686892 44.885671 45.080638 45.271959 45.458884 45.641579
45.819339 45.992329 46.159891 46.322191 46.478623 46.629351 46.773824 46.912204
47.043993 47.169351 47.287835 47.399598 47.504252 47.601941 47.692333 47.775556
47.851334 47.919779 47.980667 48.034092 48.079880 48.118105 48.148642 48.171543
48.186733 48.194238 48.194032 48.186114 48.170510 48.147192 48.116235 48.077586
48.031370 47.977511 47.916182 47.847289 47.771055 47.687367 47.596502 47.498330
47.393182 47.280915 47.161915 47.036031 46.903704 46.764774 46.619741 46.468440
46.311426 46.148532 45.980366 45.806763 45.628381 45.445055 45.257494 45.065530
44.869917 44.670487 44.468032 44.262384 44.054364 43.843801 43.631542 43.417410
43.202267 42.985927 42.769264 42.552078 42.335243 42.118545 41.902851 41.687929
41.474631 41.262706 41.052983 40.845190 40.640127 40.437499 40.238071 40.041523
39.848582 39.658906 39.473174 39.291023 39.113083 38.938971 38.769263 38.603559
38.442381 38.285311 38.132815 37.984462 37.840661 37.700971 37.565742 37.434526
37.307615 37.184560 37.065593 36.950266 36.838754 36.730614 36.625964 36.524372
36.425900 36.330128 36.237066 36.146310 36.057818 35.971208 35.886389 35.803004
35.720913 35.639789 35.559448 35.479593 35.400000
35.777778 35.874702 35.971916 36.069667 36.168285 36.267970 36.369087 36.471786
36.576464 36.683219 36.792474 36.904271 37.019056 37.136813 37.258006 37.382560
37.510951 37.643041 37.779318 37.919579 38.064316 38.213261 38.366906 38.524919
38.687786 38.855109 39.027367 39.204095 39.385761 39.571835 39.762768 39.957967
40.157864 40.361807 40.570205 40.782347 40.998620 41.218258 41.441623 41.667900
41.897425 42.129339 42.363954 42.600371 42.838879 43.078549 43.319645 43.561218
43.803510 44.045559 44.287588 44.528631 44.768896 45.007420 45.244402 45.478892
45.711079 45.940039 46.165953 46.387929 46.606147 46.819753 47.028925 47.232856
47.431725 47.624777 47.812191 47.993268 48.168189 48.336312 48.497818 48.652126
48.799416 48.939167 49.071553 49.196117 49.313023 49.421875 49.522827 49.615541
49.700155 49.776392 49.844368 49.903866 49.954978 49.997543 50.031630 50.057129
50.074084 50.082441 50.082212 50.073399 50.055985 50.030025 49.995474 49.952440
49.900852 49.840874 49.772409 49.695676 49.610558 49.517329 49.415853 49.306464
49.189011 49.063889 48.930931 48.790597 48.642711 48.487793 48.325665 48.156908
47.981340 47.799605 47.611520 47.417788 47.218228 47.013598 46.803719 46.589401
46.370465 46.147768 45.921131 45.691450 45.458544 45.223342 44.985656 44.746438
44.505494 44.263791 44.021121 43.778458 43.535578 43.293452 43.051839 42.811695
42.572760 42.335967 42.101033 41.868864 41.639150 41.412760 41.189360 40.969777
40.753647 40.541752 40.333703 40.130227 39.930911 39.736425 39.546336 39.361252
39.180721 39.005288 38.834486 38.668795 38.507734 38.351721 38.200263 38.053713
37.911574 37.774134 37.640895 37.512079 37.387192 37.266393 37.149195 37.035697
36.925423 36.818410 36.714201 36.612774 36.513693 36.416879 36.321922 36.228690
36.136802 36.046076 35.956163 35.866834 35.777778
36.155556 36.262961 36.370664 36.479009 36.588243 36.698750 36.810728 36.924596
37.040493 37.158873 37.279815 37.403799 37.530843 37.661448 37.795567 37.933719
38.075790 38.222311 38.373097 38.528688 38.688828 38.854060 39.024054 39.199351
39.379551 39.565185 39.755780 39.951856 40.152869 40.359322 40.570601 40.787189
41.008401 41.234700 41.465335 41.700741 41.940106 42.183839 42.431069 42.682176
42.936238 43.193604 43.453310 43.715675 43.979695 44.245665 44.512552 44.780624
45.048829 45.317413 45.585313 45.852758 46.118684 46.383305 46.645568 46.905675
47.162596 47.416525 47.666461 47.912596 48.153968 48.390767 48.622080 48.848098
49.067961 49.281864 49.489006 49.689584 49.882861 50.069036 50.247439 50.418266
50.580916 50.735583 50.881734 51.019555 51.148581 51.268987 51.380376 51.482908
51.576249 51.660542 51.735516 51.801289 51.857655 51.904704 51.942290 51.970474
51.989170 51.998407 51.998157 51.988419 51.969221 51.940532 51.902437 51.854874
51.797988 51.731688 51.656179 51.571343 51.477448 51.374352 51.262388 51.141394
51.011768 50.873334 50.726557 50.571249 50.407944 50.236448 50.057363 49.870492
49.676505 49.475203 49.267325 49.052675 48.832053 48.605267 48.373178 48.135595
47.893435 47.646508 47.395779 47.141057 46.883347 46.622456 46.359420 46.094037
45.827366 45.559194 45.290592 45.021332 44.752484 44.483804 44.216352 43.949861
43.685373 43.422596 43.162544 42.904898 42.650634 42.399404 42.152142 41.908470
41.669271 41.434137 41.203896 40.978111 40.757549 40.541749 40.331410 40.126048
39.926297 39.731650 39.542671 39.358837 39.180642 39.007549 38.839980 38.677390
38.520129 38.367649 38.220228 38.077319 37.939129 37.805118 37.675423 37.549515
37.427466 37.308759 37.193402 37.080900 36.971197 36.863824 36.758663 36.655276
36.553490 36.452899 36.353275 36.254253 36.155556
36.533333 36.651425 36.769868 36.888966 37.009116 37.130564 37.253753 37.378868
37.506387 37.636433 37.769519 37.905699 38.045511 38.188943 38.336553 38.488256
38.644628 38.805507 38.971480 39.142310 39.318588 39.499999 39.687132 39.879595
40.077971 40.281788 40.491618 40.706910 40.928221 41.154920 41.387544 41.625388
41.868963 42.117488 42.371450 42.629998 42.893586 43.161298 43.433557 43.709387
43.989177 44.271898 44.557908 44.846131 45.136893 45.429081 45.722992 46.017487
46.312836 46.607881 46.902872 47.196646 47.489432 47.780073 48.068786 48.354431
48.637214 48.916025 49.191064 49.461260 49.726812 49.986697 50.241115 50.489100
50.730855 50.965478 51.193175 51.413113 51.625503 51.829581 52.025560 52.212753
52.391371 52.560800 52.721247 52.872175 53.013780 53.145599 53.267814 53.380034
53.482422 53.574658 53.656882 53.728840 53.790647 53.842112 53.883322 53.914150
53.934647 53.944752 53.944480 53.933832 53.912789 53.881413 53.839651 53.787627
53.725255 53.652725 53.569920 53.477093 53.374103 53.261271 53.138430 53.005973
52.863715 52.712121 52.550991 52.380866 52.201536 52.013616 51.816893 51.612057
51.398895 51.178169 50.949670 50.714234 50.471652 50.222831 49.967566 49.706829
49.440417 49.169358 48.893454 48.613780 48.330137 48.043639 47.754083 47.462613
47.169014 46.874450 46.578693 46.282913 45.986863 45.691708 45.397180 45.104429
44.813158 44.524491 44.238103 43.955083 43.675073 43.399116 43.126823 42.859186
42.595781 42.337540 42.084010 41.836056 41.593194 41.356222 41.124626 40.899133
40.679203 40.465487 40.257425 40.055591 39.859408 39.669370 39.484891 39.306385
39.133258 38.965847 38.803556 38.646645 38.494521 38.347366 38.204598 38.066326
37.931979 37.801595 37.674622 37.551030 37.430291 37.312307 37.196581 37.082952
36.970955 36.860371 36.750775 36.641889 36.533333
36.911111 37.040133 37.169512 37.299659 37.430873 37.563613 37.698116 37.834883
37.974087 38.116264 38.261517 38.410415 38.562986 38.719826 38.880887 39.046783
39.217387 39.393329 39.574398 39.761231 39.953536 40.151951 40.356098 40.566612
40.783029 41.005974 41.234896 41.470407 41.711868 41.959871 42.213696 42.473906
42.739701 43.011615 43.288768 43.571664 43.859346 44.152285 44.449454 44.751289
45.056700 45.366086 45.678303 45.993712 46.311127 46.630874 46.951730 47.273990
47.596407 47.919251 48.241259 48.562680 48.882252 49.200204 49.515289 49.827722
50.136283 50.441179 50.741226 51.036630 51.326254 51.610307 51.887709 52.158673
52.422186 52.678465 52.926570 53.166726 53.398069 53.620826 53.834217 54.038470
54.232885 54.417690 54.592266 54.756834 54.910857 55.054542 55.187433 55.309720
55.421022 55.521507 55.610867 55.689245 55.756404 55.812453 55.857225 55.890796
55.913065 55.924070 55.923777 55.912186 55.889330 55.855168 55.809800 55.753149
55.685381 55.606387 55.516399 55.415277 55.303326 55.180378 55.046812 54.902437
54.747711 54.582423 54.407111 54.221554 54.026369 53.821330 53.607137 53.383560
53.151381 52.910375 52.661403 52.404243 52.139837 51.867968 51.589651 51.304675
51.014121 50.717783 50.416801 50.110970 49.801480 49.488123 49.172127 48.853277
48.532827 48.210551 47.887716 47.564077 47.240903 46.917929 46.596410 46.276053
45.958091 45.642201 45.329581 45.019873 44.714231 44.412260 44.115063 43.822207
43.534733 43.252172 42.975498 42.704207 42.439198 42.179936 41.927242 41.680550
41.440601 41.206804 40.979818 40.759028 40.545009 40.337132 40.135885 39.940628
39.751764 39.568648 39.391599 39.219972 39.054002 38.893052 38.737274 38.586044
38.439435 38.296838 38.158254 38.023095 37.891288 37.762274 37.635911 37.511675
37.389354 37.268467 37.148738 37.029731 36.911111
37.288889 37.429075 37.569678 37.711055 37.853679 37.997843 38.144065 38.292572
38.443925 38.598276 38.756224 38.917845 39.083767 39.253985 39.429152 39.609180
39.794739 39.985653 40.182606 40.385331 40.594517 40.809807 41.031887 41.260309
41.495751 41.737671 41.986734 42.242304 42.505027 42.774175 43.050369 43.332790
43.622029 43.917182 44.218803 44.525905 44.839006 45.157041 45.480487 45.808208
46.140640 46.476583 46.816434 47.158936 47.504448 47.851669 48.200921 48.550870
48.901806 49.252374 49.602837 49.951834 50.299603 50.644792 50.987624 51.326765
51.662431 51.993321 52.319646 52.640154 52.955056 53.263157 53.564674 53.858481
54.144801 54.422585 54.692063 54.952271 55.203445 55.444706 55.676296 55.897426
56.108339 56.308333 56.497650 56.675676 56.842642 56.998022 57.142033 57.274229
57.394808 57.503405 57.600189 57.684875 57.757598 57.818148 57.866624 57.902886
57.926997 57.938885 57.938572 57.926056 57.901316 57.864420 57.815306 57.754112
57.680737 57.595390 57.497934 57.388654 57.267380 57.134475 56.989741 56.833622
56.665900 56.487102 56.296995 56.096193 55.884454 55.662481 55.430028 55.187887
54.935815 54.674693 54.404284 54.125553 53.838273 53.543493 53.240993 52.931899
52.615997 52.294486 51.967154 51.635260 51.298593 50.958460 50.614647 50.268494
49.919779 49.569865 49.218512 48.867090 48.515341 48.164626 47.814661 47.466788
47.120688 46.777675 46.437391 46.101108 45.768429 45.440570 45.117097 44.799162
44.486288 44.179558 43.878457 43.583989 43.295601 43.014217 42.739246 42.471528
42.210442 41.956738 41.709769 41.470193 41.237344 41.011788 40.792843 40.580984
40.375518 40.176829 39.984222 39.797991 39.617442 39.442781 39.273326 39.109194
38.949718 38.794934 38.644195 38.497457 38.354102 38.214006 38.076586 37.941646
37.808642 37.677307 37.547144 37.417820 37.288889
37.666667 37.818292 37.970338 38.123282 38.277480 38.433465 38.591520 38.752228
38.915796 39.082850 39.253516 39.428455 39.607710 39.791970 39.981191 40.176085
40.376514 40.583207 40.795933 41.015426 41.241360 41.474472 41.714336 41.961683
42.215988 42.477969 42.747003 43.023788 43.307600 43.599113 43.897506 44.203420
44.515940 44.835671 45.161605 45.494308 45.832684 46.177258 46.526850 46.881940
47.241278 47.605296 47.972679 48.343816 48.717337 49.093589 49.471159 49.850358
50.229741 50.609587 50.988437 51.366541 51.742440 52.116364 52.486869 52.854173
53.216860 53.575141 53.927647 54.274588 54.614653 54.948055 55.273554 55.591372
55.900347 56.200714 56.491397 56.772640 57.043460 57.304112 57.553707 57.792504
58.019713 58.235593 58.439449 58.631536 58.811251 58.978838 59.133785 59.276317
59.406009 59.523061 59.627131 59.718386 59.796567 59.861802 59.913907 59.952972
59.978887 59.991696 59.991362 59.977885 59.951300 59.911561 59.858776 59.792855
59.713980 59.622020 59.517234 59.399455 59.269021 59.125733 58.970014 58.801639
58.621118 58.428208 58.223509 58.006767 57.778676 57.538977 57.288461 57.026869
56.755090 56.472869 56.181191 55.879813 55.569810 55.250952 54.924401 54.589936
54.248803 53.900787 53.547206 53.187849 52.824092 52.455726 52.084173 51.709216
51.332308 50.953220 50.573421 50.192661 49.812410 49.432392 49.054063 48.677113
48.302969 47.931285 47.563447 47.199065 46.839473 46.484236 46.134626 45.790162
45.452042 45.119742 44.794379 44.475387 44.163796 43.858999 43.561935 43.271963
42.989926 42.715150 42.448384 42.188926 41.937426 41.693164 41.456690 41.227270
41.005356 40.790206 40.582175 40.380521 40.185503 39.996384 39.813331 39.635619
39.463324 39.295741 39.132859 38.973997 38.819062 38.667406 38.518853 38.372796
38.228982 38.086849 37.946073 37.806143 37.666667
38.044444 38.207769 38.371578 38.536289 38.702447 38.870397 39.040739 39.213739
39.390047 39.569845 39.753823 39.942078 40.135334 40.333594 40.537610 40.747292
40.963408 41.185771 41.415161 41.651288 41.894938 42.145717 42.404407 42.670510
42.944795 43.226659 43.516855 43.814670 44.120834 44.434528 44.756450 45.085679
45.422876 45.767016 46.118720 46.476867 46.842031 47.213000 47.590300 47.972635
48.360480 48.752464 49.149013 49.548692 49.951878 50.357082 50.764638 51.173017
51.582514 51.991575 52.400462 52.807613 53.213263 53.615859 54.015617 54.411009
54.802242 55.187828 55.567972 55.941241 56.307846 56.666424 57.017195 57.358877
57.691703 58.014484 58.327465 58.629556 58.921014 59.200852 59.469338 59.725589
59.969877 60.201424 60.420501 60.626432 60.819480 60.999067 61.165442 61.318119