# vtk DataFile Version 3.0
Steady-state temperature (Jacobi)
ASCII
DATASET STRUCTURED_POINTS
DIMENSIONS 181 181 1
ORIGIN 0.0 0.0 0.0
SPACING 0.05 0.05 1.0
POINT_DATA 32761
SCALARS Temperature float 1
LOOKUP_TABLE default
32.000000 32.000000 32.000000 32.000000 32.000000 32.000000 32.000000 32.000000
32.000000 32.000000 32.000000 32.000000 32.000000 32.000000 32.000000 32.000000
32.000000 32.000000 32.000000 32.000000 32.000000 32.000000 32.000000 32.000000
32.000000 32.000000 32.000000 32.000000 32.000000 32.000000 32.000000 32.000000
32.000000 32.000000 32.000000 32.000000 32.000000 32.000000 32.000000 32.000000
32.000000 32.000000 32.000000 32.000000 32.000000 32.000000 32.000000 32.000000
32.000000 32.000000 32.000000 32.000000 32.000000 32.000000 32.000000 32.000000
32.000000 32.000000 32.000000 32.000000 32.000000 32.000000 32.000000 32.000000
32.000000 32.000000 32.000000 32.000000 32.000000 32.000000 32.000000 32.000000
32.000000 32.000000 32.000000 32.000000 32.000000 32.000000 32.000000 32.000000
32.000000 32.000000 32.000000 32.000000 32.000000 32.000000 32.000000 32.000000
32.000000 32.000000 32.000000 32.000000 32.000000 32.000000 32.000000 32.000000
32.000000 32.000000 32.000000 32.000000 32.000000 32.000000 32.000000 32.000000
32.000000 32.000000 32.000000 32.000000 32.000000 32.000000 32.000000 32.000000
32.000000 32.000000 32.000000 32.000000 32.000000 32.000000 32.000000 32.000000
32.000000 32.000000 32.000000 32.000000 32.000000 32.000000 32.000000 32.000000
32.000000 32.000000 32.000000 32.000000 32.000000 32.000000 32.000000 32.000000
32.000000 32.000000 32.000000 32.000000 32.000000 32.000000 32.000000 32.000000
32.000000 32.000000 32.000000 32.000000 32.000000 32.000000 32.000000 32.000000
32.000000 32.000000 32.000000 32.000000 32.000000 32.000000 32.000000 32.000000
32.000000 32.000000 32.000000 32.000000 32.000000 32.000000 32.000000 32.000000
32.000000 32.000000 32.000000 32.000000 32.000000 32.000000 32.000000 32.000000
32.000000 32.000000 32.000000 32.000000 32.000000
32.377778 32.393106 32.408454 32.423848 32.439303 32.454847 32.470493 32.486271
32.502190 32.518280 32.534549 32.551028 32.567719 32.584655 32.601833 32.619287
32.637011 32.655038 32.673357 32.692001 32.710954 32.730249 32.749865 32.769835
32.790131 32.810786 32.831768 32.853108 32.874769 32.896779 32.919097 32.941750
32.964691 32.987946 33.011463 33.035266 33.059299 33.083583 33.108057 33.132742
33.157574 33.182568 33.207660 33.232863 33.258108 33.283408 33.308692 33.333971
33.359172 33.384305 33.409296 33.434154 33.458806 33.483258 33.507438 33.531353
33.554932 33.578181 33.601031 33.623488 33.645485 33.667029 33.688057 33.708574
33.728522 33.747906 33.766672 33.784827 33.802320 33.819157 33.835293 33.850735
33.865441 33.879419 33.892632 33.905087 33.916752 33.927635 33.937708 33.946977
33.955420 33.963042 33.969825 33.975774 33.980874 33.985130 33.988531 33.991081
33.992772 33.993607 33.993584 33.992701 33.990963 33.988366 33.984917 33.980613
33.975465 33.969468 33.962637 33.954967 33.946476 33.937158 33.927036 33.916104
33.904390 33.891885 33.878623 33.864596 33.849840 33.834349 33.818164 33.801278
33.783737 33.765534 33.746721 33.727290 33.707297 33.686735 33.665665 33.644080
33.622043 33.599548 33.576663 33.553382 33.529773 33.505831 33.481627 33.457156
33.432489 33.407620 33.382624 33.357490 33.332295 33.307028 33.281762 33.256487
33.231275 33.206113 33.181072 33.156136 33.131373 33.106767 33.082382 33.058199
33.034279 33.010601 32.987223 32.964119 32.941344 32.918871 32.896750 32.874952
32.853520 32.832426 32.811707 32.791333 32.771337 32.751687 32.732411 32.713475
32.694903 32.676660 32.658766 32.641184 32.623928 32.606964 32.590300 32.573901
32.557771 32.541877 32.526217 32.510758 32.495496 32.480399 32.465457 32.450641
32.435938 32.421320 32.406770 32.392262 32.377778
32.755556 32.786228 32.816944 32.847744 32.878677 32.909776 32.941095 32.972658
33.004525 33.036712 33.069283 33.102244 33.135662 33.169535 33.203932 33.238842
33.274333 33.310386 33.347071 33.384357 33.422314 33.460902 33.500188 33.540124
33.580776 33.622083 33.664109 33.706785 33.750172 33.794188 33.838893 33.884196
33.930151 33.976658 34.023767 34.071371 34.119514 34.168079 34.217108 34.266477
34.316221 34.366210 34.416475 34.466881 34.517455 34.568056 34.618707 34.669266
34.719751 34.770018 34.820083 34.869799 34.919183 34.968088 35.016527 35.064358
35.111592 35.158089 35.203861 35.248773 35.292837 35.335922 35.378042 35.419073
35.459029 35.497794 35.535382 35.571686 35.606722 35.640391 35.672708 35.703585
35.733038 35.760987 35.787448 35.812352 35.835714 35.857473 35.877644 35.896176
35.913083 35.928321 35.941904 35.953797 35.964011 35.972519 35.979330 35.984427
35.987814 35.989484 35.989436 35.987673 35.984191 35.978999 35.972093 35.963490
35.953181 35.941192 35.927513 35.912178 35.895174 35.876545 35.856276 35.834419
35.810959 35.785956 35.759396 35.731348 35.701797 35.670821 35.638406 35.604639
35.569507 35.533107 35.495425 35.456567 35.416520 35.375401 35.333195 35.290027
35.245885 35.200898 35.155055 35.108492 35.061199 35.013315 34.964829 34.915885
34.866471 34.816733 34.766657 34.716390 34.665916 34.615381 34.564766 34.514216
34.463708 34.413385 34.363219 34.313348 34.263741 34.214530 34.165680 34.117317
34.069399 34.022047 33.975213 33.929010 33.883387 33.838447 33.794134 33.750542
33.707613 33.665429 33.623929 33.583186 33.543134 33.503838 33.465230 33.427363
33.390167 33.353685 33.317847 33.282686 33.248130 33.214203 33.180834 33.148036
33.115739 33.083948 33.052594 33.021673 32.991119 32.960918 32.931008 32.901368
32.871938 32.842690 32.813570 32.784541 32.755556
33.133333 33.179385 33.225499 33.271747 33.318182 33.364884 33.411893 33.459297
33.507126 33.555472 33.604354 33.653867 33.704018 33.754905 33.806522 33.858971
33.912229 33.966400 34.021448 34.077475 34.134431 34.192418 34.251369 34.311385
34.372384 34.434464 34.497527 34.561667 34.626772 34.692930 34.760014 34.828108
34.897069 34.966976 35.037672 35.109229 35.181477 35.254482 35.328062 35.402275
35.476930 35.552078 35.627517 35.703292 35.779195 35.855264 35.931284 36.007289
36.083061 36.158627 36.233767 36.308506 36.382623 36.456140 36.528840 36.600740
36.671628 36.741522 36.810215 36.877724 36.943850 37.008610 37.071817 37.133487
37.193443 37.251703 37.308104 37.362664 37.415232 37.465828 37.514315 37.560713
37.604899 37.646895 37.686592 37.724010 37.759054 37.791746 37.822003 37.849845
37.875204 37.898097 37.918469 37.936336 37.951655 37.964437 37.974652 37.982308
37.987389 37.989896 37.989826 37.987176 37.981955 37.974156 37.963799 37.950874
37.935413 37.917402 37.896886 37.873848 37.848344 37.820356 37.789952 37.757114
37.721922 37.684356 37.644512 37.602368 37.558033 37.511487 37.462854 37.412111
37.359399 37.304695 37.248153 37.189753 37.129661 37.067858 37.004524 36.939639
36.873395 36.805773 36.736975 36.666983 36.596005 36.524025 36.451256 36.377681
36.303518 36.228748 36.153591 36.078024 36.002269 35.926299 35.850334 35.774341
35.698538 35.622886 35.547597 35.472627 35.398178 35.324201 35.250890 35.178188
35.106279 35.035098 34.964817 34.895366 34.826904 34.759352 34.692858 34.627336
34.562919 34.499516 34.437244 34.376009 34.315913 34.256856 34.198925 34.142017
34.086205 34.031383 33.977609 33.924775 33.872923 33.821947 33.771874 33.722598
33.674133 33.626374 33.579321 33.532874 33.487018 33.441657 33.396764 33.352249
33.308074 33.264153 33.220438 33.176851 33.133333
33.511111 33.572591 33.634160 33.695896 33.757900 33.820236 33.883014 33.946283
34.010162 34.074683 34.139974 34.206050 34.273043 34.340950 34.409908 34.479897
34.551053 34.623338 34.696891 34.771653 34.847762 34.925139 35.003919 35.084005
35.165528 35.248369 35.332656 35.418248 35.505268 35.593556 35.683227 35.774101
35.866286 35.959582 36.054090 36.149592 36.246179 36.343617 36.441987 36.541042
36.640852 36.741156 36.842017 36.943161 37.044644 37.146182 37.247822 37.349277
37.450584 37.551453 37.651915 37.751679 37.850772 37.948904 38.046098 38.142069
38.236839 38.330129 38.421959 38.512061 38.600455 38.686885 38.771371 38.853670
38.933807 39.011551 39.086930 39.159731 39.229981 39.297488 39.362279 39.424180
39.483221 39.539244 39.592281 39.642193 39.689011 39.732616 39.773036 39.810170
39.844044 39.874576 39.901788 39.925615 39.946076 39.963121 39.976765 39.986975
39.993761 39.997105 39.997011 39.993478 39.986504 39.976105 39.962272 39.945037
39.924386 39.900368 39.872964 39.842239 39.808171 39.770843 39.730229 39.686428
39.639414 39.589305 39.536071 39.479850 39.420613 39.358515 39.293528 39.225827
39.155383 39.082391 39.006824 38.928894 38.848576 38.766100 38.681443 38.594849
38.506296 38.416045 38.324073 38.230653 38.135764 38.039687 37.942400 37.844191
37.745037 37.645232 37.544747 37.443877 37.342592 37.241185 37.139618 37.038182
36.936832 36.835854 36.735192 36.635125 36.535590 36.436852 36.338840 36.241806
36.145671 36.050671 35.956717 35.864030 35.772510 35.682361 35.593476 35.506039
35.419934 35.335327 35.252095 35.170384 35.090063 35.011260 34.933838 34.857904
34.783319 34.710169 34.638312 34.567813 34.498531 34.430511 34.363611 34.297858
34.233112 34.169381 34.106527 34.044542 33.983294 33.922755 33.862800 33.803385
33.744394 33.685768 33.627398 33.569212 33.511111
33.888889 33.965867 34.042950 34.120257 34.197877 34.275943 34.354526 34.433769
34.513725 34.594546 34.676265 34.759042 34.842887 34.927967 35.014269 35.101964
35.191017 35.281599 35.373650 35.467344 35.562595 35.659574 35.758171 35.858553
35.960585 36.064429 36.169923 36.277223 36.386143 36.496830 36.609073 36.723009
36.838403 36.955384 37.073692 37.193445 37.314361 37.436547 37.559701 37.683919
37.808881 37.934670 38.060952 38.187798 38.314862 38.442204 38.569468 38.696705
38.823553 38.950055 39.075845 39.200959 39.325033 39.448097 39.569789 39.690139
39.808792 39.925773 40.040739 40.153715 40.264372 40.372736 40.478492 40.581669
40.681972 40.779430 40.873769 40.965021 41.052934 41.137541 41.218613 41.296187
41.370056 41.440257 41.506607 41.569145 41.627710 41.682339 41.732896 41.779414
41.821781 41.860026 41.894058 41.923903 41.949490 41.970839 41.987901 42.000690
42.009175 42.013363 42.013246 42.008822 42.000102 41.987078 41.969780 41.948194
41.922370 41.892287 41.858015 41.819530 41.776922 41.730161 41.679361 41.624487
41.565677 41.502894 41.436298 41.365851 41.291736 41.213917 41.132600 41.047750
40.959596 40.868106 40.773532 40.675842 40.575313 40.471915 40.365945 40.257375
40.146521 40.033357 39.918216 39.801072 39.682271 39.561788 39.439980 39.316820
39.192671 39.067504 38.941687 38.815184 38.688364 38.561185 38.434014 38.306800
38.179904 38.053264 37.927233 37.801739 37.677122 37.553300 37.430595 37.308915
37.188565 37.069440 36.951826 36.835606 36.721045 36.608015 36.496757 36.387133
36.279361 36.173291 36.069119 35.966687 35.866163 35.767382 35.670489 35.575313
35.481972 35.390292 35.300366 35.212016 35.125313 35.040077 34.956354 34.873967
34.792937 34.713092 34.634427 34.556778 34.480118 34.404288 34.329242 34.254829
34.180984 34.107566 34.034492 33.961633 33.888889
34.266667 34.359223 34.451914 34.544858 34.638206 34.732054 34.826569 34.921826
35.018004 35.115152 35.213461 35.312956 35.413834 35.516095 35.619941 35.725344
35.832510 35.941383 36.052170 36.164784 36.279433 36.395998 36.514685 36.635346
36.758179 36.883005 37.010017 37.139005 37.270153 37.403219 37.538378 37.675359
37.814322 37.954972 38.097454 38.241445 38.387077 38.534002 38.682338 38.831714
38.982234 39.133506 39.285622 39.438171 39.591232 39.744382 39.897687 40.050714
40.203518 40.355661 40.507188 40.657661 40.807117 40.955119 41.101701 41.246433
41.389345 41.530018 41.668480 41.804327 41.937589 42.067878 42.195225 42.319266
42.440033 42.557186 42.670759 42.780438 42.886262 42.987942 43.085520 43.178735
43.267631 43.351977 43.431816 43.506944 43.577407 43.643027 43.703848 43.759720
43.810683 43.856615 43.897549 43.933389 43.964163 43.989799 44.010319 44.025675
44.035880 44.040910 44.040770 44.035458 44.024972 44.009334 43.988532 43.962612
43.931553 43.895428 43.854208 43.807989 43.756737 43.700574 43.639462 43.573549
43.502793 43.427371 43.347237 43.262597 43.173406 43.079897 42.982026 42.880055
42.773942 42.663978 42.550122 42.432693 42.311654 42.187350 42.059745 41.929210
41.795712 41.659641 41.520968 41.380100 41.237010 41.092119 40.945398 40.797281
40.647735 40.497200 40.345640 40.193497 40.040726 39.887771 39.734577 39.581582
39.428721 39.276421 39.124606 38.973690 38.823583 38.674684 38.526887 38.380571
38.235618 38.092383 37.950734 37.811000 37.673036 37.537146 37.403169 37.271382
37.141611 37.014105 36.888679 36.765551 36.644527 36.525795 36.409152 36.294756
36.182399 36.072209 35.963972 35.857787 35.753439 35.650996 35.550246 35.451226
35.353727 35.257758 35.163116 35.069784 34.977564 34.886413 34.796145 34.706692
34.617878 34.529614 34.441737 34.354137 34.266667
34.644444 34.752683 34.861069 34.969772 35.078916 35.188689 35.299191 35.410625
35.523063 35.636723 35.751649 35.868067 35.985993 36.105661 36.227056 36.350415
36.475691 36.603126 36.732637 36.864466 36.998495 37.134964 37.273720 37.414998
37.558608 37.704778 37.853283 38.004341 38.157692 38.313540 38.471592 38.632039
38.794552 38.959310 39.125950 39.294634 39.464970 39.637104 39.810614 39.985630
40.161705 40.338951 40.516902 40.695652 40.874715 41.054174 41.233527 41.412843
41.591613 41.769892 41.947167 42.123485 42.298333 42.471750 42.643229 42.812805
42.979980 43.144787 43.306744 43.465883 43.621742 43.774354 43.923279 44.068554
44.209766 44.346955 44.479738 44.608157 44.731861 44.850897 44.964944 45.074054
45.177939 45.276652 45.369938 45.457852 45.540171 45.616948 45.687993 45.753357
45.812880 45.866608 45.914414 45.956334 45.992271 46.022255 46.046217 46.064176
46.076092 46.081975 46.081812 46.075602 46.063358 46.045071 46.020781 45.990467
45.954199 45.911947 45.863809 45.809746 45.749886 45.684185 45.612801 45.535684
45.453023 45.364768 45.271138 45.172082 45.067854 44.958402 44.844014 44.724639
44.600599 44.471847 44.338736 44.201224 44.059696 43.914113 43.764890 43.611990
43.455856 43.296456 43.134254 42.969219 42.801837 42.632076 42.460437 42.286886
42.111934 41.935542 41.758230 41.579950 41.401221 41.221988 41.042766 40.863488
40.684659 40.506200 40.328603 40.151771 39.976181 39.801721 39.628843 39.457419
39.287879 39.120076 38.954411 38.790722 38.629380 38.470205 38.313536 38.159180
38.007442 37.858113 37.711464 37.567275 37.425782 37.286754 37.150390 37.016453
36.885106 36.756105 36.629579 36.505280 36.383303 36.263398 36.145626 36.029741
35.915769 35.803467 35.692832 35.583628 35.475820 35.369182 35.263649 35.159009
35.055170 34.951933 34.849181 34.746731 34.644444
35.022222 35.146253 35.270465 35.395016 35.520111 35.645879 35.772545 35.900208
36.029108 36.159316 36.291084 36.424448 36.559673 36.696759 36.835978 36.977294
37.120982 37.266969 37.415532 37.566558 37.720323 37.876672 38.035878 38.197746
38.362541 38.530026 38.700456 38.873555 39.049565 39.228168 39.409592 39.593481
39.780045 39.968890 40.160208 40.353570 40.549149 40.746480 40.945719 41.146369
41.348566 41.551787 41.756148 41.961104 42.166752 42.372528 42.578513 42.784130
42.989446 43.193875 43.397472 43.599650 43.800452 43.999295 44.196218 44.390645
44.582611 44.771555 44.957511 45.139939 45.318872 45.493796 45.664746 45.831237
45.993310 46.150510 46.302882 46.450009 46.591939 46.728291 46.859120 46.984080
47.103229 47.216262 47.323238 47.423887 47.518270 47.606156 47.687601 47.762411
47.830639 47.892124 47.946913 47.994881 48.036065 48.070371 48.097830 48.118378
48.132033 48.138764 48.138578 48.131474 48.117446 48.096525 48.068693 48.034011
47.992450 47.944105 47.888936 47.827069 47.758459 47.683265 47.601433 47.513160
47.418387 47.317348 47.209982 47.096558 46.977017 46.851667 46.720450 46.583711
46.441397 46.293891 46.141144 45.983577 45.821143 45.654301 45.483010 45.307759
45.128511 44.945786 44.759550 44.570347 44.378145 44.183507 43.986401 43.787406
43.586484 43.384225 43.180584 42.976156 42.770886 42.565366 42.359531 42.153963
41.948583 41.743963 41.540004 41.337261 41.135618 40.935605 40.737089 40.540573
40.345903 40.153553 39.963348 39.775730 39.590504 39.408075 39.228231 39.051340
38.877173 38.706057 38.537749 38.372537 38.210162 38.050874 37.894403 37.740957
37.590259 37.442476 37.297326 37.154934 37.015018 36.877664 36.742588 36.609839
36.479137 36.350493 36.223633 36.098534 35.974931 35.852766 35.731787 35.611904
35.492881 35.374596 35.256832 35.139440 35.022222
35.400000 35.539958 35.680109 35.820670 35.961805 36.103756 36.246654 36.390760
36.536173 36.683170 36.831814 36.982394 37.134936 37.289739 37.446786 37.606386
37.768480 37.933377 38.100976 38.271588 38.445064 38.621712 38.801339 38.984246
39.170192 39.359469 39.551791 39.747437 39.946073 40.147963 40.352730 40.560618
40.771207 40.984722 41.200699 41.419343 41.640150 41.863303 42.088262 42.315187
42.543504 42.773352 43.004129 43.235951 43.468194 43.700953 43.933584 44.166168
44.398048 44.629287 44.859224 45.087910 45.314683 45.539587 45.761967 45.981860
46.198625 46.412296 46.622252 46.828529 47.030530 47.228293 47.421253 47.609452
47.792360 47.970024 48.141954 48.308202 48.468317 48.622360 48.769921 48.911064
49.045426 49.173071 49.293680 49.407320 49.513711 49.612921 49.704712 49.789148
49.866030 49.935417 49.997148 50.051274 50.097671 50.136379 50.167310 50.190493
50.205876 50.213471 50.213263 50.205250 50.189450 50.165849 50.134498 50.095369
50.048550 49.994001 49.931845 49.862031 49.784720 49.699853 49.607629 49.507984
49.401156 49.287079 49.166032 49.037948 48.903148 48.761567 48.613570 48.459093
48.298548 48.131874 47.959524 47.781447 47.598134 47.409541 47.216199 47.018067
46.815714 46.609103 46.398833 46.184871 45.967841 45.747711 45.525127 45.300051
45.073145 44.844367 44.614383 44.383145 44.151319 43.918845 43.686384 43.453859
43.221921 42.990475 42.760154 42.530843 42.303153 42.076945 41.852803 41.630568
41.410788 41.193282 40.978564 40.766429 40.557352 40.351106 40.148124 39.948161
39.751605 39.558192 39.368266 39.181547 38.998333 38.818330 38.641792 38.468412
38.298398 38.131438 37.967692 37.806843 37.649008 37.493869 37.341499 37.191580
37.044144 36.898880 36.755778 36.614535 36.475102 36.337190 36.200712 36.065392
35.931112 35.797613 35.664743 35.532266 35.400000
35.777778 35.933802 36.090056 36.246739 36.404108 36.562328 36.721682 36.882298
37.044477 37.208309 37.374113 37.541937 37.712112 37.884643 38.059870 38.237751
38.418633 38.602427 38.789479 38.979652 39.173291 39.370207 39.570739 39.774649
39.982265 40.193297 40.408061 40.626215 40.848059 41.073202 41.301923 41.533780
41.769033 42.007192 42.248493 42.492400 42.739125 42.988088 43.239477 43.492673
43.747837 44.004316 44.262247 44.520947 44.780530 45.040288 45.300315 45.559886
45.819075 46.077147 46.334161 46.589378 46.842846 47.093831 47.342370 47.587744
47.829985 48.068391 48.302995 48.533119 48.758800 48.979392 49.194934 49.404819
49.609093 49.807190 49.999163 50.184490 50.363231 50.534913 50.699601 50.856871
51.006793 51.148990 51.283536 51.410101 51.528762 51.639234 51.741590 51.835592
51.921309 51.998544 52.067358 52.127598 52.179312 52.222388 52.256863 52.282661
52.299805 52.308258 52.308027 52.299113 52.281507 52.255247 52.220308 52.176767
52.124586 52.063878 51.994593 51.916885 51.830694 51.736215 51.633379 51.522427
51.403283 51.276233 51.141202 50.998519 50.848111 50.690357 50.525185 50.353023
50.173805 49.988006 49.795568 49.597014 49.392291 49.181969 48.966003 48.745003
48.518931 48.288436 48.053485 47.814757 47.572222 47.326587 47.077819 46.826646
46.573031 46.317712 46.060647 45.802578 45.543449 45.284002 45.024164 44.764669
44.505424 44.247146 43.989721 43.733843 43.479375 43.226981 42.976500 42.728562
42.482979 42.240342 42.000440 41.763821 41.530248 41.300224 41.073488 40.850495
40.630964 40.415300 40.203200 39.995022 39.790444 39.589773 39.392676 39.199405
39.009617 38.823515 38.640749 38.461471 38.285326 38.112420 37.942396 37.775312
37.610818 37.448923 37.289285 37.131870 36.976347 36.822639 36.670431 36.519606
36.369868 36.221062 36.072914 35.925236 35.777778
36.155556 36.327811 36.500305 36.673306 36.847018 37.021737 37.197630 37.375017
37.554022 37.734986 37.917989 38.103388 38.291216 38.481843 38.675251 38.871819
39.071478 39.274609 39.481092 39.691305 39.905075 40.122775 40.344175 40.569641
40.798885 41.032261 41.269425 41.510713 41.755726 42.004779 42.257418 42.513936
42.773823 43.037348 43.303950 43.573870 43.846497 44.122046 44.399858 44.680121
44.962134 45.246057 45.531153 45.817555 46.104497 46.392086 46.679532 46.966921
47.253447 47.539176 47.823296 48.105856 48.386046 48.663904 48.938628 49.210249
49.477983 49.741858 50.001117 50.255787 50.505144 50.749221 50.987330 51.219512
51.445124 51.664216 51.876191 52.081109 52.278424 52.468206 52.649961 52.823766
52.989181 53.146288 53.294700 53.434502 53.565359 53.687355 53.800207 53.903994
53.998480 54.083739 54.159581 54.226068 54.283057 54.330595 54.368582 54.397051
54.415941 54.425270 54.425018 54.415184 54.395788 54.366813 54.328319 54.280271
54.222772 54.155772 54.079415 53.993639 53.898632 53.794323 53.680947 53.558424
53.427038 53.286705 53.137762 52.980122 52.814175 52.639839 52.457554 52.267245
52.069407 51.863971 51.651486 51.431892 51.205788 50.973126 50.734553 50.490028
50.240243 49.985165 49.725526 49.461296 49.193241 48.921332 48.646360 48.368295
48.087945 47.805274 47.521099 47.235373 46.948916 46.661663 46.374429 46.087129
45.800563 45.514624 45.230090 44.946828 44.665585 44.386205 44.109397 43.834975
43.563611 43.295089 43.030034 42.768203 42.510173 42.255672 42.005227 41.758540
41.516083 41.277536 41.043316 40.813081 40.587193 40.365293 40.147687 39.934001
39.724484 39.518755 39.317005 39.118847 38.924420 38.733332 38.545670 38.361044
38.179490 38.000623 37.824430 37.650538 37.478883 37.309110 37.141109 36.974542
36.809258 36.644941 36.481401 36.318348 36.155556
36.533333 36.721984 36.910913 37.100365 37.290650 37.481972 37.674670 37.868904
38.065038 38.263186 38.463729 38.666733 38.872596 39.081328 39.293339 39.508586
39.727484 39.949932 40.176347 40.406569 40.641012 40.879457 41.122309 41.369286
41.620783 41.876457 42.136684 42.401061 42.669944 42.942866 43.220161 43.501304
43.786599 44.075462 44.368171 44.664086 44.963451 45.265575 45.570673 45.878003
46.187749 46.499126 46.812287 47.126411 47.441622 47.757068 48.072847 48.388087
48.702861 49.016284 49.328409 49.638350 49.946144 50.250908 50.552673 50.850569
51.144621 51.433985 51.718685 51.997908 52.271684 52.539239 52.800608 53.055066
53.302658 53.542708 53.775273 53.999732 54.216153 54.423972 54.623268 54.813536
54.994862 55.166801 55.329442 55.482399 55.625763 55.759203 55.882810 55.996305
56.099774 56.192988 56.276024 56.348703 56.411088 56.463047 56.504627 56.535741
56.556418 56.566615 56.566341 56.555597 56.534371 56.502708 56.460578 56.408067
56.345128 56.271892 56.188297 56.094522 55.990489 55.876427 55.752251 55.618238
55.474300 55.320767 55.157548 54.985031 54.803127 54.612281 54.412409 54.204017
53.987028 53.762006 53.528886 53.288290 53.040163 52.785184 52.523309 52.255267
51.981025 51.701360 51.416244 51.126496 50.832093 50.533886 50.231850 49.926862
49.618894 49.308835 48.996649 48.683233 48.368534 48.053446 47.737898 47.422770
47.107970 46.794356 46.481808 46.171157 45.862252 45.555890 45.251889 44.951001
44.653014 44.358633 44.067613 43.780607 43.497339 43.218409 42.943508 42.673179
42.407086 42.145713 41.888700 41.636469 41.388637 41.145567 40.906859 40.672812
40.443014 40.217704 39.996460 39.779460 39.566279 39.357035 39.151303 38.949144
38.750138 38.554291 38.361190 38.170790 37.982692 37.796798 37.612729 37.430339
37.249270 37.069334 36.890198 36.711632 36.533333
36.911111 37.116349 37.321872 37.528003 37.734987 37.943178 38.152776 38.364165
38.577496 38.793174 39.011300 39.232298 39.456213 39.683484 39.914098 40.148500
40.386619 40.628905 40.875221 41.126018 41.381094 41.640893 41.905148 42.174292
42.447990 42.726660 43.009899 43.298105 43.590809 43.888382 44.190291 44.496879
44.807547 45.122607 45.441398 45.764199 46.090289 46.419913 46.752294 47.087641
47.425129 47.764931 48.106178 48.449010 48.792520 49.136818 49.480969 49.825055
50.168120 50.510224 50.850403 51.188695 51.524138 51.856758 52.185603 52.510691
52.831093 53.146823 53.456984 53.761593 54.059792 54.351607 54.636225 54.913685
55.183227 55.444902 55.698010 55.942616 56.178080 56.404480 56.621243 56.828456
57.025609 57.212799 57.389580 57.556053 57.711833 57.857023 57.991297 58.114752
58.227121 58.328493 58.418652 58.497677 58.565402 58.621890 58.667025 58.700848
58.723292 58.734379 58.734084 58.722408 58.699374 58.664960 58.619233 58.562150
58.493828 58.414204 58.323443 58.221466 58.108490 57.984423 57.849536 57.703730
57.547330 57.380236 57.202833 57.015019 56.817242 56.609406 56.392022 56.165004
55.928926 55.683713 55.430006 55.167741 54.897621 54.619598 54.334434 54.042093
53.743391 53.438304 53.127696 52.811549 52.490771 52.165345 51.836209 51.503346
51.167717 50.829297 50.489057 50.146959 49.803978 49.460057 49.116160 48.772208
48.429146 48.086867 47.746290 47.407275 47.070705 46.736407 46.405221 46.076938
45.752350 45.431211 45.114259 44.801214 44.492753 44.188563 43.889261 43.594500
43.304833 43.019885 42.740144 42.465208 42.195499 41.930594 41.670848 41.415820
41.165799 40.920333 40.679642 40.443269 40.211370 39.983483 39.759701 39.539566
39.323111 39.109882 38.899855 38.692588 38.488002 38.285671 38.085462 37.886973
37.690019 37.494225 37.299361 37.105080 36.911111
37.288889 37.510900 37.733241 37.956201 38.180147 38.405323 38.632129 38.860756
39.091632 39.324897 39.561000 39.800022 40.042431 40.288247 40.537949 40.791495
41.049370 41.311464 41.578265 41.849594 42.125934 42.407037 42.693375 42.984629
43.281255 43.582863 43.889888 44.201868 44.519213 44.841387 45.168773 45.500765
45.837711 46.178936 46.524753 46.874421 47.228216 47.585332 47.946008 48.309381
48.675648 49.043897 49.414287 49.785861 50.158742 50.531936 50.905536 51.278519
51.650950 52.021792 52.391085 52.757787 53.121920 53.482449 53.839385 54.191712
54.539435 54.881566 55.218113 55.548126 55.871621 56.187696 56.496377 56.796818
57.089061 57.372323 57.646658 57.911352 58.166476 58.411383 58.646160 58.870230
59.083692 59.286037 59.477374 59.657262 59.825812 59.982651 60.127887 60.261208
60.382717 60.492161 60.589632 60.674931 60.748135 60.809098 60.857878 60.894379
60.918635 60.930600 60.930285 60.917690 60.892802 60.855670 60.806256 60.744657
60.670814 60.584874 60.486759 60.376668 60.254508 60.120534 59.974641 59.817142
59.647929 59.467375 59.275371 59.072358 58.858227 58.633490 58.398047 58.152477
57.896695 57.631350 57.356370 57.072477 56.779614 56.478568 56.169301 55.852662
55.528626 55.198100 54.861072 54.518496 54.170367 53.817680 53.460430 53.099643
52.735309 52.368473 51.999114 51.628283 51.255943 50.883140 50.509815 50.136998
49.764600 49.393628 49.023958 48.656564 48.291285 47.929050 47.569662 47.213998
46.861822 46.513955 46.170120 45.831076 45.496510 45.167114 44.842538 44.523408
44.209338 43.900885 43.597632 43.300064 43.007740 42.721072 42.439598 42.163657
41.892770 41.627207 41.366477 41.110779 40.859616 40.613118 40.370789 40.132693
39.898336 39.667719 39.440359 39.216195 38.994759 38.775932 38.559267 38.344589
38.131476 37.919702 37.708876 37.498724 37.288889
37.666667 37.905666 38.145001 38.385049 38.626097 38.868560 39.112675 39.358888
39.607382 39.858628 40.112750 40.370239 40.631157 40.896012 41.164797 41.438030
41.715634 41.998133 42.285377 42.577886 42.875437 43.178543 43.486904 43.801018
44.120510 44.445857 44.776606 45.113211 45.455139 45.802814 46.155627 46.513969
46.877154 47.245534 47.618352 47.995919 48.377407 48.763085 49.152060 49.544558
49.939626 50.337448 50.737018 51.138477 51.540779 51.944025 52.347133 52.750172
53.152036 53.552766 53.951244 54.347487 54.740379 55.129922 55.515012 55.895645
56.270740 56.640294 57.003262 57.359647 57.708453 58.049694 58.382431 58.706693
59.021609 59.327223 59.622736 59.908212 60.182924 60.446957 60.699661 60.941133
61.170801 61.388777 61.594560 61.788269 61.969478 62.138306 62.294395 62.437861
62.568410 62.686149 62.790844 62.882588 62.961201 63.026759 63.079136 63.118384
63.144428 63.157295 63.156961 63.143423 63.116708 63.076788 63.023737 62.957502
62.878210 62.785785 62.680405 62.561977 62.430736 62.286573 62.129785 61.960253
61.778339 61.583921 61.377427 61.158739 60.928359 60.686174 60.432761 60.168021
59.892606 59.606435 59.310237 59.003947 58.688370 58.363462 58.030100 57.688255
57.338873 56.981940 56.618459 56.248429 55.872902 55.491883 55.106461 54.716641
54.323537 53.927149 53.528605 53.127886 52.726124 52.323279 51.920469 51.517628
51.115850 50.715034 50.316244 49.919338 49.525337 49.134059 48.746473 48.362353
47.982610 47.606974 47.236292 46.870252 46.509630 46.154074 45.804287 45.459878
45.121477 44.788656 44.461969 44.140957 43.826098 43.516906 43.213780 42.916216
42.624535 42.338217 42.057507 41.781877 41.511496 41.245833 40.984985 40.728421
40.476171 40.227710 39.983001 39.741532 39.503202 39.267519 39.034322 38.803141
38.573758 38.345736 38.118802 37.892552 37.666667
38.044444 38.300638 38.557215 38.814513 39.072957 39.332831 39.594599 39.858487
40.124990 40.394274 40.666856 40.942841 41.222763 41.506657 41.795073 42.087971
42.385909 42.688772 42.997117 43.310752 43.630228 43.955274 44.286426 44.623333
44.966513 45.315531 45.670881 46.032045 46.399487 46.772604 47.151827 47.536471
47.926927 48.322429 48.723325 49.128773 49.539074 49.953314 50.371746 50.793388
51.218446 51.645877 52.075840 52.507240 52.940192 53.373557 53.807413 54.240586
54.673119 55.103822 55.532707 55.958578 56.381428 56.800067 57.214476 57.623485
58.027073 58.424103 58.814558 59.197348 59.572467 59.938884 60.296609 60.644678
60.983120 61.311048 61.628513 61.934706 62.229702 62.512775 62.784019 63.042790
63.289202 63.522690 63.743381 63.950789 64.145045 64.325740 64.493005 64.646500