# vtk DataFile Version 3.0
Steady-state temperature (Jacobi)
ASCII
DATASET STRUCTURED_POINTS
DIMENSIONS 181 181 1
ORIGIN 0.0 0.0 0.0
SPACING 0.05 0.05 1.0
POINT_DATA 32761
SCALARS Temperature float 1
LOOKUP_TABLE default
32.000000 32.000000 32.000000 32.000000 32.000000 32.000000 32.000000 32.000000
32.000000 32.000000 32.000000 32.000000 32.000000 32.000000 32.000000 32.000000
32.000000 32.000000 32.000000 32.000000 32.000000 32.000000 32.000000 32.000000
32.000000 32.000000 32.000000 32.000000 32.000000 32.000000 32.000000 32.000000
32.000000 32.000000 32.000000 32.000000 32.000000 32.000000 32.000000 32.000000
32.000000 32.000000 32.000000 32.000000 32.000000 32.000000 32.000000 32.000000
32.000000 32.000000 32.000000 32.000000 32.000000 32.000000 32.000000 32.000000
32.000000 32.000000 32.000000 32.000000 32.000000 32.000000 32.000000 32.000000
32.000000 32.000000 32.000000 32.000000 32.000000 32.000000 32.000000 32.000000
32.000000 32.000000 32.000000 32.000000 32.000000 32.000000 32.000000 32.000000
32.000000 32.000000 32.000000 32.000000 32.000000 32.000000 32.000000 32.000000
32.000000 32.000000 32.000000 32.000000 32.000000 32.000000 32.000000 32.000000
32.000000 32.000000 32.000000 32.000000 32.000000 32.000000 32.000000 32.000000
32.000000 32.000000 32.000000 32.000000 32.000000 32.000000 32.000000 32.000000
32.000000 32.000000 32.000000 32.000000 32.000000 32.000000 32.000000 32.000000
32.000000 32.000000 32.000000 32.000000 32.000000 32.000000 32.000000 32.000000
32.000000 32.000000 32.000000 32.000000 32.000000 32.000000 32.000000 32.000000
32.000000 32.000000 32.000000 32.000000 32.000000 32.000000 32.000000 32.000000
32.000000 32.000000 32.000000 32.000000 32.000000 32.000000 32.000000 32.000000
32.000000 32.000000 32.000000 32.000000 32.000000 32.000000 32.000000 32.000000
32.000000 32.000000 32.000000 32.000000 32.000000 32.000000 32.000000 32.000000
32.000000 32.000000 32.000000 32.000000 32.000000 32.000000 32.000000 32.000000
32.000000 32.000000 32.000000 32.000000 32.000000
32.377778 32.385269 32.392788 32.400366 32.408026 32.415804 32.423717 32.431806
32.440081 32.448587 32.457329 32.466352 32.475658 32.485294 32.495253 32.505586
32.516281 32.527388 32.538888 32.550834 32.563198 32.576036 32.589313 32.603082
32.617303 32.632030 32.647215 32.662911 32.679063 32.695723 32.712829 32.730433
32.748466 32.766978 32.785894 32.805262 32.825001 32.845157 32.865644 32.886505
32.907651 32.929121 32.950822 32.972791 32.994932 33.017281 33.039737 33.062335
33.084972 33.107680 33.130357 33.153034 33.175607 33.198106 33.220428 33.242602
33.264527 33.286230 33.307613 33.328704 33.349407 33.369749 33.389640 33.409104
33.428056 33.446522 33.464421 33.481778 33.498519 33.514667 33.530154 33.545004
33.559155 33.572628 33.585369 33.597399 33.608668 33.619197 33.628942 33.637922
33.646100 33.653493 33.660070 33.665845 33.670795 33.674929 33.678232 33.680710
33.682354 33.683166 33.683144 33.682287 33.680599 33.678076 33.674728 33.670548
33.665552 33.659730 33.653104 33.645663 33.637434 33.628404 33.618606 33.608024
33.596700 33.584614 33.571815 33.558282 33.544070 33.529158 33.513606 33.497392
33.480584 33.463158 33.445189 33.426650 33.407624 33.388085 33.368119 33.347699
33.326917 33.305746 33.284282 33.262497 33.240491 33.218235 33.195831 33.173250
33.150596 33.127839 33.105082 33.082296 33.059583 33.036912 33.014385 32.991968
32.969763 32.947732 32.925976 32.904455 32.883264 32.862364 32.841845 32.821664
32.801908 32.782532 32.763618 32.745117 32.727106 32.709536 32.692475 32.675874
32.659795 32.644187 32.629105 32.614496 32.600411 32.586794 32.573690 32.561043
32.548890 32.537176 32.525930 32.515098 32.504703 32.494692 32.485080 32.475816
32.466909 32.458309 32.450019 32.441991 32.434221 32.426666 32.419316 32.412128
32.405088 32.398158 32.391318 32.384533 32.377778
32.755556 32.770559 32.785622 32.800794 32.816145 32.831713 32.847576 32.863761
32.880353 32.897370 32.914899 32.932948 32.951611 32.970881 32.990857 33.011519
33.032970 33.055177 33.078246 33.102129 33.126933 33.152597 33.179230 33.206757
33.235285 33.264725 33.295186 33.326563 33.358962 33.392267 33.426581 33.461774
33.497947 33.534955 33.572897 33.611618 33.651210 33.691507 33.732598 33.774306
33.816716 33.859643 33.903166 33.947092 33.991497 34.036182 34.081217 34.126400
34.171797 34.217201 34.262678 34.308019 34.353285 34.398270 34.443032 34.487366
34.531329 34.574722 34.617599 34.659766 34.701277 34.741947 34.781826 34.820739
34.858736 34.895652 34.931536 34.966234 34.999794 35.032074 35.063121 35.092804
35.121170 35.148101 35.173641 35.197685 35.220274 35.241317 35.260850 35.278797
35.295190 35.309964 35.323147 35.334688 35.344608 35.352870 35.359490 35.364443
35.367737 35.369360 35.369316 35.367604 35.364220 35.359179 35.352468 35.344114
35.334101 35.322466 35.309187 35.294315 35.277823 35.259774 35.240136 35.218986
35.196287 35.172131 35.146475 35.119426 35.090938 35.061129 35.029954 34.997543
34.963848 34.929012 34.892986 34.855926 34.817781 34.778718 34.738686 34.697861
34.656192 34.613865 34.570827 34.527272 34.483145 34.438647 34.393721 34.348573
34.303144 34.257642 34.212007 34.166447 34.120898 34.075568 34.030390 33.985570
33.941036 33.896989 33.853354 33.810326 33.767826 33.726040 33.684884 33.644538
33.604913 33.566177 33.528237 33.491252 33.455123 33.419998 33.385776 33.352590
33.320335 33.289134 33.258878 33.229676 33.201419 33.174200 33.147910 33.122629
33.098247 33.074830 33.052268 33.030614 33.009760 32.989745 32.970463 32.951939
32.934072 32.916873 32.900245 32.884187 32.868606 32.853490 32.838752 32.824367
32.810256 32.796383 32.782676 32.769088 32.755556
33.133333 33.155895 33.178540 33.201363 33.224433 33.247858 33.271690 33.296049
33.320970 33.346584 33.372907 33.400079 33.428098 33.457111 33.487097 33.518209
33.550406 33.583845 33.618465 33.654428 33.691651 33.730296 33.770262 33.811712
33.854520 33.898851 33.944559 33.991804 34.040422 34.090570 34.142061 34.195050
34.249330 34.305052 34.361989 34.420286 34.479701 34.540370 34.602036 34.664828
34.728475 34.793100 34.858418 34.924545 34.991188 35.058455 35.126044 35.194058
35.262190 35.330537 35.398788 35.467036 35.534970 35.602678 35.669854 35.736580
35.802555 35.867862 35.932204 35.995662 36.057952 36.119152 36.178990 36.237544
36.294555 36.350100 36.403937 36.456141 36.506488 36.555051 36.601624 36.646278
36.688827 36.729337 36.767644 36.803810 36.837689 36.869338 36.898633 36.925625
36.950207 36.972426 36.992195 37.009551 37.024427 37.036852 37.046779 37.054226
37.059165 37.061607 37.061540 37.058966 37.053893 37.046311 37.036249 37.023687
37.008672 36.991175 36.971262 36.948897 36.924164 36.897019 36.867568 36.835758
36.801715 36.765380 36.726900 36.686211 36.643480 36.598638 36.551873 36.503113
36.452563 36.400152 36.346103 36.290342 36.233110 36.174331 36.114263 36.052830
35.990304 35.926606 35.862022 35.796472 35.730252 35.663279 35.595858 35.527904
35.459727 35.391237 35.322749 35.254169 35.185810 35.117574 35.049772 34.982301
34.915466 34.849157 34.783672 34.718895 34.655113 34.592204 34.530442 34.469699
34.410235 34.351914 34.294981 34.239295 34.185082 34.132194 34.080842 34.030872
33.982474 33.935490 33.890092 33.846118 33.803718 33.762730 33.723281 33.685210
33.648623 33.613357 33.579500 33.546890 33.515593 33.485451 33.456510 33.428615
33.401793 33.375895 33.350929 33.326751 33.303352 33.280597 33.258457 33.236807
33.215602 33.194727 33.174122 33.153683 33.133333
33.511111 33.541294 33.571597 33.602121 33.633001 33.664319 33.696227 33.728785
33.762158 33.796382 33.831638 33.867936 33.905467 33.944217 33.984385 34.025932
34.069063 34.113712 34.160091 34.208105 34.257970 34.309564 34.363103 34.418437
34.475783 34.534962 34.596190 34.659261 34.724385 34.791330 34.860302 34.931040
35.003747 35.078134 35.154397 35.232226 35.311804 35.392801 35.475392 35.559225
35.644468 35.730749 35.818227 35.906516 35.995765 36.085576 36.176089 36.266897
36.358134 36.449385 36.540776 36.631894 36.722856 36.813251 36.903192 36.992272
37.080600 37.167779 37.253916 37.338622 37.422005 37.503691 37.583785 37.661933
37.738236 37.812362 37.884410 37.954071 38.021442 38.086238 38.148554 38.208129
38.265054 38.319097 38.370342 38.418584 38.463902 38.506116 38.545299 38.581298
38.614176 38.643807 38.670246 38.693391 38.713285 38.729853 38.743128 38.753058
38.759664 38.762919 38.762831 38.759398 38.752615 38.742506 38.729050 38.712299
38.692220 38.668887 38.642257 38.612430 38.579353 38.543150 38.503758 38.461330
38.415793 38.367327 38.315850 38.261571 38.204402 38.144577 38.082005 38.016946
37.949305 37.879368 37.807038 37.732623 37.656025 37.577577 37.497178 37.415181
37.331483 37.246457 37.159999 37.072495 36.983839 36.894432 36.804163 36.713442
36.622154 36.530716 36.439007 36.347445 36.255905 36.164803 36.074006 35.983924
35.894418 35.805888 35.718187 35.631704 35.546281 35.462293 35.379574 35.298480
35.218835 35.140976 35.064719 34.990379 34.917763 34.847162 34.778375 34.711669
34.646837 34.584119 34.523303 34.464603 34.407801 34.353085 34.300236 34.249412
34.200395 34.153314 34.107953 34.064414 34.022482 33.982234 33.943459 33.906205
33.870271 33.835678 33.802231 33.769929 33.738585 33.708174 33.678522 33.649579
33.621186 33.593270 33.565686 33.538343 33.511111
33.888889 33.926786 33.964822 34.003156 34.041904 34.081247 34.121272 34.162179
34.204029 34.247039 34.291238 34.336858 34.383898 34.432603 34.482939 34.535161
34.589202 34.645324 34.703427 34.763779 34.826244 34.891094 34.958158 35.027707
35.099537 35.173918 35.250610 35.329879 35.411451 35.495586 35.581978 35.670880
35.761950 35.855435 35.950963 36.048769 36.148452 36.250238 36.353697 36.459044
36.565827 36.674247 36.783831 36.894770 37.006574 37.119421 37.232808 37.346903
37.461194 37.575841 37.690323 37.804795 37.918736 38.032292 38.144948 38.256844
38.367474 38.476972 38.584848 38.691231 38.795649 38.898228 38.998517 39.096642
39.192174 39.285238 39.375433 39.462881 39.547211 39.628542 39.706534 39.781302
39.852540 39.920356 39.984478 40.045008 40.101707 40.154668 40.203686 40.248846
40.289973 40.327142 40.360211 40.389241 40.414123 40.434904 40.451505 40.463960
40.472221 40.476304 40.476194 40.471890 40.463407 40.450729 40.433901 40.412892
40.387779 40.358514 40.325207 40.287794 40.246418 40.201004 40.151726 40.098497
40.041525 39.980713 39.916303 39.848191 39.776649 39.701569 39.623257 39.541598
39.456931 39.369138 39.278591 39.185166 39.089266 38.990766 38.890095 38.787127
38.682316 38.575534 38.467255 38.357351 38.246313 38.134007 38.020942 37.906977
37.792631 37.677757 37.562879 37.447844 37.333175 37.218711 37.104970 36.991784
36.879660 36.768419 36.658558 36.549885 36.442879 36.337338 36.233721 36.131813
36.032050 35.934205 35.838688 35.745262 35.654307 35.565577 35.479420 35.395582
35.314380 35.235551 35.159379 35.085597 35.014452 34.945675 34.879479 34.815591
34.754191 34.695007 34.638182 34.583448 34.530914 34.480315 34.431729 34.384895
34.339859 34.296372 34.254444 34.213839 34.174536 34.136313 34.099120 34.062748
34.027122 33.992049 33.957426 33.923082 33.888889
34.266667 34.312381 34.358276 34.404503 34.451270 34.498697 34.547015 34.596314
34.646843 34.698659 34.752031 34.806978 34.863785 34.922434 34.983223 35.046095
35.111360 35.178918 35.249088 35.321729 35.397166 35.475215 35.556202 35.639903
35.726644 35.816157 35.908765 36.004160 36.102658 36.203910 36.308224 36.415213
36.525174 36.637681 36.753021 36.870731 36.991085 37.113587 37.238497 37.365287
37.494206 37.624697 37.756995 37.890519 38.025490 38.161311 38.298188 38.435509
38.573470 38.711451 38.849635 38.987400 39.124920 39.261575 39.397533 39.532181
39.665680 39.797432 39.927593 40.055584 40.181557 40.304957 40.425934 40.543960
40.659183 40.771107 40.879877 40.985031 41.086712 41.184496 41.278521 41.368401
41.454270 41.535781 41.613062 41.685805 41.754130 41.817769 41.876831 41.931089
41.980638 42.025290 42.065127 42.099998 42.129971 42.154932 42.174929 42.189889
42.199839 42.204744 42.204611 42.199442 42.189226 42.173999 42.153731 42.128497
42.098248 42.063095 42.022972 41.978028 41.928180 41.873618 41.814244 41.750285
41.681632 41.608552 41.530925 41.449060 41.362826 41.272572 41.178163 41.079986
40.977900 40.872333 40.763140 40.650784 40.535120 40.416644 40.295209 40.171343
40.044897 39.916429 39.785784 39.653546 39.519557 39.384418 39.247969 39.110824
38.972817 38.834571 38.695912 38.557466 38.419050 38.281289 38.143987 38.007761
37.872404 37.738521 37.605890 37.475098 37.345910 37.218890 37.093790 36.971144
36.850693 36.732941 36.617613 36.505181 36.395358 36.288580 36.184546 36.083657
35.985603 35.890742 35.798758 35.709969 35.624052 35.541284 35.461338 35.384451
35.310294 35.239062 35.170428 35.104544 35.041090 34.980175 34.921487 34.865096
34.810696 34.758321 34.707677 34.658760 34.611291 34.565229 34.520313 34.476468
34.433451 34.391155 34.349361 34.307930 34.266667
34.644444 34.698113 34.751977 34.806263 34.861132 34.916840 34.973510 35.031426
35.090671 35.151552 35.214112 35.278676 35.345245 35.414162 35.485383 35.559264
35.635714 35.715100 35.797285 35.882643 35.970987 36.062696 36.157534 36.255880
36.357451 36.462623 36.571062 36.683140 36.798475 36.917431 37.039578 37.165271
37.294032 37.426204 37.561266 37.699547 37.840485 37.984391 38.130667 38.279608
38.430581 38.583865 38.738797 38.895638 39.053701 39.213233 39.373527 39.534813
39.696372 39.858422 40.020236 40.182020 40.343047 40.503514 40.662699 40.820791
40.977083 41.131757 41.284124 41.434362 41.581807 41.726635 41.868212 42.006710
42.141532 42.272847 42.400096 42.523447 42.642383 42.757067 42.867028 42.972424
43.072828 43.168393 43.258740 43.344011 43.423874 43.498462 43.567487 43.631071
43.688970 43.741291 43.787836 43.828693 43.863710 43.892952 43.916314 43.933839
43.945463 43.951209 43.951056 43.945001 43.933067 43.915231 43.891555 43.861994
43.826655 43.785471 43.738592 43.685932 43.627685 43.563747 43.494358 43.419397
43.339152 43.253488 43.162739 43.066760 42.965932 42.860100 42.749692 42.634548
42.515143 42.391310 42.263567 42.131748 41.996412 41.857389 41.715278 41.569908
41.421912 41.271116 41.118186 40.962944 40.806082 40.647416 40.487659 40.326621
40.165027 40.002681 39.840314 39.677722 39.515634 39.353833 39.193046 39.033041
38.874530 38.717269 38.561952 38.408316 38.257033 38.107823 37.961328 37.817254
37.676207 37.537877 37.402833 37.270749 37.142154 37.016707 36.894894 36.776362
36.661551 36.550096 36.442392 36.338067 36.237465 36.140208 36.046595 35.956243
35.869402 35.785691 35.705309 35.627879 35.553554 35.481960 35.413205 35.346925
35.283180 35.221621 35.162261 35.104767 35.049111 34.994977 34.942297 34.890774
34.840303 34.790612 34.741557 34.692894 34.644444
35.022222 35.083988 35.145996 35.208452 35.271633 35.335703 35.400971 35.467558
35.535800 35.605774 35.677841 35.752028 35.828717 35.907886 35.989934 36.074787
36.162858 36.254020 36.348695 36.446701 36.548468 36.653757 36.763000 36.875903
36.992896 37.113629 37.238530 37.367189 37.500028 37.636583 37.777264 37.921554
38.069848 38.221580 38.377128 38.535877 38.698188 38.863399 39.031855 39.202850
39.376710 39.552694 39.731107 39.911176 40.093189 40.276346 40.460917 40.646085
40.832102 41.018140 41.204436 41.390157 41.575530 41.759725 41.942957 42.124408
42.304286 42.481792 42.657127 42.829518 42.999163 43.165319 43.328182 43.487048
43.642110 43.792708 43.939032 44.080467 44.217203 44.348674 44.475064 44.595862
44.711244 44.820752 44.924556 45.022248 45.113989 45.199426 45.278704 45.351523
45.418013 45.477925 45.531369 45.578148 45.618350 45.651829 45.678649 45.698711
45.712056 45.718635 45.718459 45.711530 45.697832 45.677414 45.650236 45.616395
45.575825 45.528673 45.474849 45.414549 45.347664 45.274440 45.194747 45.108885
45.016708 44.918568 44.814305 44.704325 44.588458 44.467163 44.340262 44.208267
44.070995 43.929009 43.782122 43.630949 43.475299 43.315834 43.152361 42.985585
42.815312 42.642285 42.466306 42.288152 42.107621 41.925516 41.741630 41.556783
41.370763 41.184401 40.997473 40.810817 40.624195 40.438442 40.253306 40.069610
39.887086 39.706540 39.527685 39.351303 39.177088 39.005789 38.837084 38.671686
38.509250 38.350450 38.194923 38.043298 37.895194 37.751191 37.610893 37.474830
37.342591 37.214653 37.090595 36.970838 36.854954 36.743308 36.635467 36.531742
36.431696 36.335585 36.242974 36.154064 36.068425 35.986203 35.906977 35.830841
35.757387 35.686654 35.618252 35.552171 35.488039 35.425799 35.365100 35.305841
35.247697 35.190522 35.134022 35.078009 35.022222
35.400000 35.470042 35.540338 35.611182 35.682784 35.755473 35.829415 35.904972
35.982258 36.061666 36.143257 36.227451 36.314251 36.404100 36.496945 36.593243
36.692884 36.796339 36.903435 37.014652 37.129757 37.249233 37.372784 37.500895
37.633204 37.770195 37.911443 38.057422 38.207646 38.362580 38.521673 38.685378
38.853086 39.025230 39.201146 39.381248 39.564817 39.752248 39.942771 40.136760
40.333401 40.533044 40.734837 40.939108 41.144972 41.352736 41.561491 41.771523
41.981906 42.192910 42.403597 42.614222 42.823848 43.032718 43.239903 43.445634
43.649001 43.850228 44.048428 44.243822 44.435556 44.623846 44.807881 44.987872
45.163054 45.333639 45.498911 45.659080 45.813486 45.962335 46.105025 46.241757
46.371987 46.495912 46.613045 46.723574 46.827074 46.923716 47.013137 47.095492
47.170474 47.238220 47.298482 47.351371 47.396696 47.434544 47.464779 47.487459
47.502502 47.509940 47.509743 47.501912 47.486472 47.463394 47.432758 47.394503
47.348766 47.295458 47.234770 47.166589 47.091162 47.008353 46.918467 46.821348
46.717358 46.606327 46.488677 46.364223 46.233448 46.096157 45.952894 45.803456
45.648447 45.487660 45.321755 45.150524 44.974681 44.794016 44.609297 44.420310
44.227869 44.031759 43.832836 43.630880 43.426780 43.220314 43.012394 42.802791
42.592437 42.381091 42.169695 41.957996 41.746935 41.536243 41.326856 41.118485
40.912049 40.707242 40.504956 40.304865 40.107829 39.913500 39.722700 39.535059
39.351355 39.171196 38.995311 38.823287 38.655802 38.492421 38.333767 38.179389
38.029850 37.884684 37.744395 37.608505 37.477456 37.350763 37.228804 37.111091
36.997938 36.888857 36.784102 36.683186 36.586301 36.492969 36.403322 36.316893
36.233755 36.153457 36.076015 36.000997 35.928365 35.857710 35.788941 35.721677
35.655776 35.590890 35.526828 35.463276 35.400000
35.777778 35.856277 35.935082 36.014453 36.094740 36.176152 36.259078 36.343672
36.430358 36.519234 36.610755 36.704959 36.802325 36.902830 37.006974 37.114670
37.226435 37.342113 37.462234 37.586575 37.715672 37.849233 37.987797 38.131000
38.279381 38.432504 38.590902 38.754070 38.922530 39.095707 39.274108 39.457093
39.645151 39.837574 40.034833 40.236158 40.441995 40.651520 40.865152 41.082014
41.302501 41.525688 41.751946 41.980309 42.211123 42.443390 42.677432 42.912228
43.148080 43.383950 43.620121 43.855550 44.090506 44.323950 44.556138 44.786045
45.013917 45.238755 45.460797 45.679077 45.893831 46.104132 46.310213 46.511199
46.707320 46.897754 47.082733 47.261492 47.434262 47.600343 47.759960 47.912479
48.058120 48.196315 48.327275 48.450500 48.566188 48.673906 48.773834 48.865606
48.949384 49.024862 49.092180 49.151097 49.201723 49.243879 49.277647 49.302907
49.319709 49.327993 49.327775 49.319055 49.301815 49.276114 49.241901 49.199295
49.148212 49.088832 49.021041 48.945081 48.860812 48.768536 48.668091 48.559845
48.443614 48.319832 48.188300 48.049517 47.903273 47.750134 47.589881 47.423147
47.249708 47.070262 46.884582 46.693430 46.496576 46.294843 46.088000 45.876926
45.661388 45.442313 45.219468 44.993821 44.765135 44.534412 44.301408 44.067151
43.831387 43.595158 43.358200 43.121558 42.884953 42.649428 42.414682 42.181745
41.950296 41.721341 41.494535 41.270855 41.049929 40.832694 40.618756 40.409004
40.203018 40.001636 39.804414 39.612132 39.424324 39.241709 39.063798 38.891249
38.723553 38.561302 38.403972 38.252086 38.105111 37.963499 37.826709 37.695125
37.568202 37.446255 37.328742 37.215907 37.107213 37.002838 36.902257 36.805579
36.712294 36.622449 36.535552 36.451586 36.370086 36.290975 36.213815 36.138471
36.064538 35.991829 35.919973 35.848732 35.777778
36.155556 36.242731 36.330220 36.418387 36.507491 36.597942 36.689942 36.783941
36.880081 36.978846 37.080315 37.185003 37.292921 37.404611 37.520013 37.639690
37.763511 37.892052 38.025109 38.163269 38.306251 38.454648 38.608102 38.767205
38.931522 39.101640 39.277045 39.458317 39.644864 39.837250 40.034809 40.238088
40.446346 40.660107 40.878562 41.102211 41.330176 41.562930 41.799537 42.040439
42.284645 42.532569 42.783171 43.036837 43.292486 43.550477 43.809698 44.070482
44.331696 44.593651 44.855200 45.116638 45.376817 45.636015 45.893096 46.148325
46.400589 46.650142 46.895905 47.138128 47.375771 47.609083 47.837074 48.059992
48.276904 48.488060 48.692590 48.890742 49.081715 49.265757 49.442137 49.611099
49.771986 49.925034 50.069661 50.206091 50.333815 50.453044 50.563341 50.664896
50.757344 50.840852 50.915122 50.980295 51.036141 51.082768 51.120014 51.147951
51.166483 51.175646 51.175408 51.165767 51.146755 51.118335 51.080601 51.033481
50.977134 50.911453 50.836664 50.752629 50.659641 50.557534 50.446671 50.326862
50.198542 50.061501 49.916247 49.762554 49.601004 49.431362 49.254283 49.069524
48.877815 48.678910 48.473609 48.261665 48.043947 47.820208 47.591381 47.357219
47.118714 46.875618 46.628973 46.378529 46.125372 45.869246 45.611269 45.351177
45.090110 44.827794 44.565380 44.302577 44.040537 43.778951 43.518960 43.260232
43.003888 42.749571 42.498372 42.249905 42.005222 41.763910 41.526974 41.293970
41.065850 40.842141 40.623735 40.410132 40.202158 39.999289 39.802282 39.610589
39.424896 39.244638 39.070423 38.901672 38.738918 38.581572 38.430089 38.283874
38.143306 38.007789 37.877625 37.752221 37.631806 37.515794 37.404341 37.296876
37.193480 37.093603 36.997257 36.903913 36.813518 36.725572 36.639957 36.556205
36.474139 36.393328 36.313536 36.234375 36.155556
36.533333 36.629399 36.725837 36.822964 36.921204 37.020813 37.122261 37.225742
37.331764 37.440455 37.552359 37.667532 37.786549 37.909391 38.036658 38.168254
38.304799 38.446115 38.592838 38.744706 38.902365 39.065469 39.234665 39.409525
39.590690 39.777648 39.971034 40.170247 40.375911 40.587342 40.805144 41.028551
41.258146 41.493083 41.733919 41.979734 42.231053 42.486888 42.747733 43.012534
43.281754 43.554282 43.830548 44.109392 44.391212 44.674809 44.960551 45.247210
45.535128 45.823057 46.111317 46.398653 46.685364 46.970204 47.253456 47.533890
47.811780 48.085926 48.356595 48.622628 48.884287 49.140467 49.391428 49.636125
49.874819 50.106532 50.331528 50.548899 50.758912 50.960736 51.154635 51.339859
51.516666 51.684388 51.843274 51.992735 52.133009 52.263587 52.384687 52.495878
52.597355 52.688764 52.770272 52.841597 52.902875 52.953896 52.994760 53.025328
53.045659 53.055686 53.055426 53.044881 53.024028 52.992936 52.951542 52.899985
52.838163 52.766285 52.684215 52.592232 52.490168 52.378377 52.256662 52.125454
51.984532 51.834405 51.674836 51.506413 51.328884 51.142920 50.948260 50.745656
50.534842 50.316650 50.090814 49.858243 49.618670 49.373080 49.121207 48.864102
48.601502 48.334518 48.062887 47.787772 47.508907 47.227496 46.943266 46.657454
46.369774 46.081482 45.792280 45.503428 45.214609 44.927079 44.640496 44.356100
44.073522 43.793973 43.517057 43.243943 42.974204 42.708963 42.447760 42.191661
41.940175 41.694303 41.453524 41.218770 40.989489 40.766541 40.549346 40.338686
40.133960 39.935867 39.743787 39.558339 39.378886 39.205964 39.038927 38.878227
38.723213 38.574254 38.430700 38.292837 38.160021 38.032457 37.909514 37.791318
37.677253 37.567369 37.461075 37.358344 37.258613 37.161785 37.067330 36.975083
36.884552 36.795508 36.707502 36.620244 36.533333
36.911111 37.016324 37.121914 37.228315 37.335842 37.444982 37.555982 37.669376
37.785341 37.904452 38.026810 38.153026 38.283122 38.417739 38.556817 38.701021
38.850206 39.005054 39.165331 39.331732 39.503934 39.682636 39.867425 40.058997
40.256848 40.461668 40.672860 40.891102 41.115704 41.347327 41.585191 41.829934
42.080687 42.338061 42.601104 42.870395 43.144904 43.425174 43.710100 44.000194
44.294281 44.592837 44.894630 45.200097 45.507961 45.818623 46.130767 46.444764
46.759271 47.074631 47.389487 47.704159 48.017290 48.329180 48.638485 48.945493
49.248886 49.548943 49.844383 50.135483 50.421014 50.701250 50.975024 51.242613
51.502919 51.756222 52.001501 52.239040 52.467901 52.688368 52.899589 53.101846
53.294375 53.477453 53.650403 53.813491 53.966129 54.108565 54.240296 54.361548
54.471902 54.571557 54.660173 54.737916 54.804525 54.860129 54.904542 54.937853
54.959950 54.970877 54.970598 54.959111 54.936452 54.902576 54.857591 54.801409
54.734214 54.655875 54.566652 54.466378 54.355391 54.233490 54.101095 53.957979
53.804642 53.640835 53.467147 53.283311 53.090002 52.886944 52.674902 52.453591
52.223864 51.985438 51.739250 51.485018 51.223763 50.955206 50.680447 50.399208
50.112661 49.820531 49.524050 49.222944 48.918497 48.610431 48.300069 47.987124
47.672948 47.357240 47.041366 46.725007 46.409528 46.094587 45.781537 45.470009
45.161330 44.855099 44.552607 44.253418 43.958776 43.668208 43.382902 43.102348
42.827669 42.558320 42.295349 42.038178 41.787777 41.543538 41.306346 41.075565
40.851995 40.634976 40.425218 40.222042 40.026069 39.836606 39.654182 39.478097
39.308789 39.145554 38.988741 38.837650 38.692542 38.552724 38.418371 38.288807
38.164121 38.043659 37.927428 37.814800 37.705706 37.599549 37.496185 37.395056
37.295945 37.198341 37.101956 37.006330 36.911111
37.288889 37.403494 37.518540 37.634404 37.751584 37.870389 37.991372 38.114765
38.241168 38.370737 38.504113 38.641367 38.783177 38.929526 39.081120 39.237854
39.400456 39.568726 39.743407 39.924206 40.111873 40.306017 40.507391 40.715505
40.931105 41.153604 41.383737 41.620816 41.865559 42.117180 42.376373 42.642257
42.915498 43.195120 43.481757 43.774344 44.073479 44.378013 44.688505 45.003730
45.324207 45.648641 45.977512 46.309467 46.644945 46.982546 47.322672 47.663888
48.006563 48.349239 48.692257 49.034151 49.375241 49.714065 50.050926 50.384385
50.714733 51.040567 51.362171 51.678194 51.988917 52.293051 52.590880 52.881186
53.164259 53.438963 53.705592 53.963096 54.211777 54.450675 54.680092 54.899166
55.108196 55.306414 55.494112 55.670618 55.836208 55.990304 56.133164 56.264299
56.383939 56.491684 56.587732 56.671766 56.743947 56.804039 56.852161 56.888157
56.912099 56.923908 56.923609 56.911200 56.886656 56.850054 56.801320 56.740609
56.667799 56.583126 56.486428 56.378019 56.257700 56.125871 55.982299 55.827471
55.661131 55.483855 55.295365 55.096332 54.886466 54.666531 54.436231 54.196426
53.946815 53.688357 53.420751 53.145049 52.860955 52.569608 52.270718 51.965508
51.653690 51.336560 51.013836 50.686874 50.355391 50.020795 49.682796 49.342839
49.000624 48.657618 48.313503 47.969754 47.626032 47.283805 46.942704 46.604176
46.267821 45.935051 45.605428 45.280318 44.959246 44.643519 44.332621 44.027792
43.728476 43.435839 43.149284 42.869895 42.597039 42.331713 42.073250 41.822554
41.578931 41.343190 41.114611 40.893907 40.680340 40.474525 40.275711 40.084416
39.899881 39.722526 39.551594 39.387408 39.229217 39.077250 38.930768 38.789909
38.653953 38.522948 38.396201 38.273672 38.154702 38.039168 37.926448 37.816341
37.708269 37.601955 37.496873 37.392675 37.288889
37.666667 37.790954 37.915685 38.041366 38.168369 38.297263 38.428341 38.562226
38.699130 38.839722 38.984129 39.133061 39.286553 39.445348 39.609389 39.779444
39.955357 40.137918 40.326869 40.523011 40.725983 40.936592 41.154373 41.380127
41.613284 41.854636 42.103507 42.360672 42.625348 42.898288 43.178603 43.467018
43.762542 44.065866 44.375900 44.693296 45.016871 45.347236 45.683119 46.025089
46.371794 46.723758 47.079560 47.439679 47.802637 48.168870 48.536855 48.906988
49.277715 49.649398 50.020465 50.391253 50.760187 51.127581 51.491879 51.853378
52.210552 52.563692 52.911319 53.253720 53.589479 53.918884 54.240593 54.554902
54.860550 55.157843 55.445612 55.724169 55.992446 56.250760 56.498142 56.734913
56.960207 57.174342 57.376554 57.567150 57.745470 57.911801 58.065582 58.207078
58.335819 58.452041 58.555365 58.645987 58.723618 58.788409 58.840157 58.878963
58.904707 58.917440 58.917122 58.903750 58.877365 58.837912 58.785513 58.720062
58.641761 58.550459 58.446441 58.329512 58.200046 58.057809 57.903268 57.736157
57.557037 57.365618 57.162560 56.947556 56.721367 56.483678 56.235352 55.976069
55.706798 55.427220 55.138407 54.840046 54.533306 54.217884 53.895041 53.564482
53.227553 52.883966 52.535142 52.180794 51.822406 51.459689 51.094175 50.725567
50.355430 49.983451 49.611213 49.238381 48.866537 48.495320 48.126297 47.759071
47.395179 47.034188 46.677587 46.324903 45.977568 45.635064 45.298756 44.968079
44.644322 44.326877 44.016945 43.713877 43.418782 43.130971 42.851458 42.579518
42.316065 42.060343 41.813162 41.573745 41.342796 41.119519 40.904514 40.696974
40.497394 40.304962 40.120069 39.941907 39.770765 39.605843 39.447331 39.294447
39.147283 39.005081 38.867838 38.734828 38.605957 38.480536 38.358386 38.238860
38.121699 38.006305 37.892340 37.779264 37.666667
38.044444 38.178687 38.313441 38.449147 38.586384 38.725512 38.867170 39.011634
39.159599 39.311250 39.467326 39.627921 39.793813 39.964996 40.142281 40.325559
40.515664 40.712383 40.916565 41.127889 41.347213 41.574102 41.809416 42.052608
42.304530 42.564522 42.833420 43.110450 43.396425 43.690461 43.993340 44.304066
44.623388 44.950200 45.285212 45.627215 45.976872 46.332879 46.695850 47.064390
47.439065 47.818400 48.202911 48.591052 48.983293 49.378030 49.775688 50.174620
50.575212 50.975791 51.376707 51.776277 52.174826 52.570677 52.964136 53.353553
53.739221 54.119533 54.494777 54.863406 55.225711 55.580218 55.927224 56.265343
56.594883 56.914552 57.224670 57.524050 57.813021 58.090505 58.356838 58.611052
58.853485 59.083280 59.300770 59.505208 59.696912 59.875243 60.040497 60.192139