# vtk DataFile Version 3.0
Steady-state temperature (Jacobi)
ASCII
DATASET STRUCTURED_POINTS
DIMENSIONS 181 181 1
ORIGIN 0.0 0.0 0.0
SPACING 0.05 0.05 1.0
POINT_DATA 32761
SCALARS Temperature float 1
LOOKUP_TABLE default
32.000000 32.000000 32.000000 32.000000 32.000000 32.000000 32.000000 32.000000
32.000000 32.000000 32.000000 32.000000 32.000000 32.000000 32.000000 32.000000
32.000000 32.000000 32.000000 32.000000 32.000000 32.000000 32.000000 32.000000
32.000000 32.000000 32.000000 32.000000 32.000000 32.000000 32.000000 32.000000
32.000000 32.000000 32.000000 32.000000 32.000000 32.000000 32.000000 32.000000
32.000000 32.000000 32.000000 32.000000 32.000000 32.000000 32.000000 32.000000
32.000000 32.000000 32.000000 32.000000 32.000000 32.000000 32.000000 32.000000
32.000000 32.000000 32.000000 32.000000 32.000000 32.000000 32.000000 32.000000
32.000000 32.000000 32.000000 32.000000 32.000000 32.000000 32.000000 32.000000
32.000000 32.000000 32.000000 32.000000 32.000000 32.000000 32.000000 32.000000
32.000000 32.000000 32.000000 32.000000 32.000000 32.000000 32.000000 32.000000
32.000000 32.000000 32.000000 32.000000 32.000000 32.000000 32.000000 32.000000
32.000000 32.000000 32.000000 32.000000 32.000000 32.000000 32.000000 32.000000
32.000000 32.000000 32.000000 32.000000 32.000000 32.000000 32.000000 32.000000
32.000000 32.000000 32.000000 32.000000 32.000000 32.000000 32.000000 32.000000
32.000000 32.000000 32.000000 32.000000 32.000000 32.000000 32.000000 32.000000
32.000000 32.000000 32.000000 32.000000 32.000000 32.000000 32.000000 32.000000
32.000000 32.000000 32.000000 32.000000 32.000000 32.000000 32.000000 32.000000
32.000000 32.000000 32.000000 32.000000 32.000000 32.000000 32.000000 32.000000
32.000000 32.000000 32.000000 32.000000 32.000000 32.000000 32.000000 32.000000
32.000000 32.000000 32.000000 32.000000 32.000000 32.000000 32.000000 32.000000
32.000000 32.000000 32.000000 32.000000 32.000000 32.000000 32.000000 32.000000
32.000000 32.000000 32.000000 32.000000 32.000000
32.377778 32.407668 32.437563 32.467468 32.497387 32.527327 32.557290 32.587282
32.617307 32.647369 32.677470 32.707616 32.737807 32.768048 32.798339 32.828683
32.859079 32.889530 32.920033 32.950589 32.981195 33.011851 33.042550 33.073294
33.104073 33.134885 33.165722 33.196579 33.227446 33.258316 33.289177 33.320021
33.350835 33.381608 33.412324 33.442974 33.473537 33.504002 33.534349 33.564564
33.594625 33.624517 33.654217 33.683709 33.712967 33.741976 33.770709 33.799148
33.827267 33.855049 33.882466 33.909499 33.936123 33.962319 33.988060 34.013329
34.038100 34.062356 34.086072 34.109232 34.131813 34.153799 34.175169 34.195910
34.216000 34.235428 34.254175 34.272231 34.289580 34.306212 34.322113 34.337275
34.351686 34.365339 34.378225 34.390338 34.401669 34.412215 34.421968 34.430926
34.439083 34.446436 34.452982 34.458719 34.463644 34.467755 34.471052 34.473532
34.475196 34.476043 34.476072 34.475284 34.473679 34.471258 34.468022 34.463971
34.459109 34.453436 34.446955 34.439669 34.431582 34.422696 34.413017 34.402548
34.391296 34.379267 34.366467 34.352904 34.338587 34.323522 34.307724 34.291199
34.273961 34.256022 34.237396 34.218095 34.198137 34.177535 34.156309 34.134473
34.112050 34.089053 34.065508 34.041429 34.016843 33.991767 33.966226 33.940239
33.913831 33.887022 33.859839 33.832300 33.804431 33.776252 33.747789 33.719059
33.690089 33.660896 33.631504 33.601930 33.572199 33.542323 33.512326 33.482222
33.452030 33.421764 33.391442 33.361073 33.330677 33.300260 33.269839 33.239420
33.209017 33.178634 33.148284 33.117970 33.087701 33.057480 33.027314 32.997203
32.967155 32.937167 32.907244 32.877385 32.847592 32.817862 32.788197 32.758591
32.729046 32.699557 32.670122 32.640737 32.611398 32.582100 32.552840 32.523613
32.494412 32.465234 32.436073 32.406922 32.377778
32.755556 32.815338 32.875131 32.934943 32.994786 33.054667 33.114598 33.174585
33.234639 33.294766 33.354974 33.415268 33.475657 33.536142 33.596731 33.657423
33.718224 33.779130 33.840145 33.901263 33.962486 34.023803 34.085216 34.146709
34.208281 34.269914 34.331603 34.393327 34.455077 34.516828 34.578568 34.640269
34.701916 34.763475 34.824930 34.886243 34.947392 35.008338 35.069056 35.129503
35.189650 35.249452 35.308879 35.367880 35.426425 35.484461 35.541954 35.598852
35.655119 35.710701 35.765562 35.819648 35.872923 35.925333 35.976842 36.027398
36.076965 36.125494 36.172950 36.219287 36.264471 36.308458 36.351219 36.392712
36.432912 36.471779 36.509290 36.545412 36.580124 36.613396 36.645210 36.675541
36.704374 36.731687 36.757467 36.781697 36.804367 36.825462 36.844974 36.862892
36.879210 36.893919 36.907014 36.918489 36.928340 36.936564 36.943159 36.948121
36.951449 36.953142 36.953201 36.951624 36.948414 36.943571 36.937097 36.928995
36.919268 36.907921 36.894957 36.880383 36.864204 36.846429 36.827065 36.806124
36.783614 36.759550 36.733942 36.706809 36.678164 36.648029 36.616419 36.583360
36.548871 36.512982 36.475713 36.437100 36.397165 36.355949 36.313476 36.269790
36.224920 36.178911 36.131796 36.083623 36.034425 35.984255 35.933146 35.881153
35.828311 35.774674 35.720280 35.665182 35.609417 35.553039 35.496085 35.438606
35.380639 35.322234 35.263425 35.204260 35.144770 35.085003 35.024985 34.964760
34.904354 34.843808 34.783141 34.722392 34.661578 34.600734 34.539873 34.479025
34.418201 34.357427 34.296711 34.236074 34.175522 34.115073 34.054728 33.994501
33.934392 33.874412 33.814557 33.754835 33.695240 33.635777 33.576438 33.517225
33.458128 33.399148 33.340272 33.281499 33.222817 33.164219 33.105696 33.047238
32.988834 32.930476 32.872150 32.813847 32.755556
33.133333 33.223014 33.312710 33.402436 33.492207 33.582038 33.671940 33.761931
33.852019 33.942220 34.032541 34.122996 34.213588 34.304332 34.395226 34.486281
34.577494 34.668874 34.760411 34.852111 34.943962 35.035965 35.128103 35.220374
35.312753 35.405237 35.497795 35.590418 35.683071 35.775738 35.868380 35.960977
36.053481 36.145870 36.238089 36.330110 36.421876 36.513350 36.604471 36.695200
36.785468 36.875232 36.964420 37.052986 37.140853 37.227972 37.314264 37.399676
37.484129 37.567567 37.649911 37.731105 37.811069 37.889747 37.967061 38.042955
38.117354 38.190206 38.261435 38.330994 38.398811 38.464843 38.529022 38.591308
38.651640 38.709982 38.766279 38.820498 38.872592 38.922531 38.970274 39.015797
39.059064 39.100055 39.138740 39.175103 39.209119 39.240776 39.270053 39.296941
39.321424 39.343496 39.363143 39.380361 39.395142 39.407482 39.417375 39.424820
39.429814 39.432354 39.432442 39.430077 39.425260 39.417993 39.408280 39.396123
39.381530 39.364502 39.345052 39.323182 39.298907 39.272233 39.243179 39.211752
39.177976 39.141861 39.103436 39.062714 39.019729 38.974499 38.927062 38.877443
38.825684 38.771813 38.715881 38.657920 38.597984 38.536113 38.472367 38.406787
38.339440 38.270373 38.199655 38.127337 38.053493 37.978176 37.901464 37.823410
37.744095 37.663575 37.581931 37.499219 37.415519 37.330887 37.245404 37.159121
37.072120 36.984449 36.896186 36.807378 36.718097 36.628386 36.538316 36.447924
36.357274 36.266401 36.175364 36.084191 35.992937 35.901624 35.810302 35.718988
35.627725 35.536526 35.445428 35.354439 35.263590 35.172885 35.082349 34.991982
34.901803 34.811808 34.722012 34.632408 34.543004 34.453791 34.364773 34.275937
34.187285 34.098800 34.010480 33.922309 33.834279 33.746373 33.658582 33.570887
33.483276 33.395731 33.308237 33.220777 33.133333
33.511111 33.630698 33.750306 33.869953 33.989662 34.109449 34.229336 34.349337
34.469474 34.589757 34.710206 34.830830 34.951645 35.072656 35.193878 35.315308
35.436959 35.558825 35.680914 35.803212 35.925724 36.048430 36.171331 36.294399
36.417630 36.540987 36.664462 36.788011 36.911618 37.035233 37.158833 37.282359
37.405783 37.529038 37.652089 37.774861 37.897312 38.019361 38.140959 38.262018
38.382484 38.502263 38.621293 38.739478 38.856750 38.973008 39.088182 39.202166
39.314888 39.426242 39.536152 39.644512 39.751246 39.856249 39.959446 40.060734
40.160041 40.257266 40.352341 40.445169 40.535688 40.623807 40.709466 40.792584
40.873106 40.950957 41.026089 41.098435 41.167954 41.234585 41.298294 41.359030
41.416763 41.471449 41.523065 41.571574 41.616958 41.659186 41.698245 41.734110
41.766772 41.796211 41.822420 41.845385 41.865102 41.881560 41.894756 41.904686
41.911346 41.914734 41.914851 41.911696 41.905271 41.895579 41.882623 41.866409
41.846941 41.824231 41.798283 41.769113 41.736728 41.701149 41.662386 41.620465
41.575400 41.527223 41.475952 41.421625 41.364267 41.303923 41.240621 41.174417
41.105343 41.033462 40.958815 40.881472 40.801479 40.718915 40.633832 40.546315
40.456424 40.364251 40.269858 40.173344 40.074777 39.974260 39.871863 39.767693
39.661824 39.554363 39.445386 39.335001 39.223282 39.110338 38.996242 38.881100
38.764981 38.647991 38.530194 38.411690 38.292539 38.172838 38.052640 37.932035
37.811071 37.689830 37.568356 37.446722 37.324964 37.203151 37.081310 36.959500
36.837745 36.716095 36.594567 36.473203 36.352013 36.231034 36.110268 35.989744
35.869460 35.749438 35.629671 35.510173 35.390934 35.271961 35.153241 35.034775
34.916545 34.798550 34.680769 34.563193 34.445801 34.328582 34.211511 34.094574
33.977745 33.861008 33.744338 33.627713 33.511111
33.888889 34.038393 34.187923 34.337504 34.487160 34.636918 34.786798 34.936827
35.087021 35.237406 35.387995 35.538811 35.689861 35.841166 35.992728 36.144565
36.296671 36.449060 36.601718 36.754656 36.907851 37.061308 37.214998 37.368916
37.523026 37.677317 37.831742 37.986283 38.140883 38.295518 38.450119 38.604654
38.759046 38.913253 39.067187 39.220801 39.373996 39.526716 39.678854 39.830346
39.981077 40.130975 40.279920 40.427832 40.574584 40.720091 40.864224 41.006892
41.147962 41.287342 41.424896 41.560532 41.694114 41.825550 41.954705 42.081490
42.205776 42.327473 42.446460 42.562652 42.675933 42.786225 42.893421 42.997448
43.098209 43.195639 43.289650 43.380185 43.467165 43.550543 43.630249 43.706243
43.778466 43.846886 43.911452 43.972139 44.028905 44.081731 44.130582 44.175445
44.216292 44.253114 44.285890 44.314613 44.339268 44.359852 44.376354 44.388772
44.397100 44.401337 44.401483 44.397537 44.389502 44.377381 44.361179 44.340900
44.316555 44.288150 44.255700 44.219214 44.178712 44.134207 44.085725 44.033283
43.976916 43.916643 43.852508 43.784537 43.712782 43.637276 43.558080 43.475235
43.388811 43.298857 43.205453 43.108656 43.008558 42.905220 42.798746 42.689206
42.576710 42.461336 42.343202 42.222393 42.099032 41.973210 41.845055 41.714661
41.582161 41.447648 41.311260 41.173090 41.033275 40.891907 40.749121 40.605008
40.459698 40.313279 40.165876 40.017571 39.868484 39.718690 39.568302 39.417386
39.266050 39.114351 38.962386 38.810206 38.657898 38.505503 38.353101 38.200723
38.048438 37.896271 37.744280 37.592480 37.440922 37.289614 37.138594 36.987865
36.837456 36.687363 36.537608 36.388179 36.239090 36.090326 35.941891 35.793767
35.645952 35.498422 35.351170 35.204170 35.057409 34.910858 34.764501 34.618306
34.472254 34.326312 34.180457 34.034658 33.888889
34.266667 34.446101 34.625567 34.805093 34.984713 35.164453 35.344346 35.524413
35.704688 35.885188 36.065942 36.246964 36.428280 36.609896 36.791836 36.974096
37.156699 37.339631 37.522908 37.706510 37.890444 38.074681 38.259221 38.444024
38.629084 38.814348 38.999800 39.185379 39.371058 39.556763 39.742460 39.928061
40.113522 40.298745 40.483674 40.668199 40.852256 41.035723 41.218525 41.400531
41.581657 41.761763 41.940755 42.118486 42.294855 42.469708 42.642939 42.814389
42.983947 43.151451 43.316790 43.479798 43.640365 43.798328 43.953575 44.105949
44.255341 44.401598 44.544616 44.684252 44.820408 44.952947 45.081781 45.206785
45.327877 45.444945 45.557916 45.666690 45.771204 45.871370 45.967135 46.058422
46.145188 46.227369 46.304929 46.377814 46.445997 46.509435 46.568107 46.621978
46.671033 46.715245 46.754604 46.789089 46.818695 46.843407 46.863221 46.878129
46.888128 46.893215 46.893389 46.888652 46.879004 46.864451 46.844996 46.820650
46.791416 46.757311 46.718343 46.674533 46.625892 46.572449 46.514220 46.451242
46.383536 46.311147 46.234104 46.152462 46.066257 45.975556 45.880402 45.780876
45.677028 45.568951 45.456707 45.340400 45.220101 45.095926 44.967956 44.836320
44.701105 44.562451 44.420455 44.275264 44.126982 43.975763 43.821717 43.665004
43.505734 43.344074 43.180134 43.014082 42.846029 42.676140 42.504525 42.331345
42.156707 41.980767 41.803625 41.625431 41.446278 41.266309 41.085607 40.904305
40.722479 40.540251 40.357686 40.174896 39.991934 39.808902 39.625844 39.442847
39.259946 39.077218 38.894684 38.712412 38.530414 38.348744 38.167407 37.986445
37.805855 37.625669 37.445875 37.266496 37.087514 36.908942 36.730756 36.552960
36.375526 36.198451 36.021701 35.845267 35.669114 35.493223 35.317559 35.142099
34.966806 34.791651 34.616598 34.441615 34.266667
34.644444 34.853824 35.063240 35.272730 35.482327 35.692070 35.901988 36.112120
36.322489 36.533132 36.744067 36.955329 37.166927 37.378894 37.591230 37.803963
38.017084 38.230615 38.444538 38.658866 38.873570 39.088657 39.304085 39.519853
39.735905 39.952230 40.168761 40.385475 40.602291 40.819175 41.036032 41.252817
41.469420 41.685785 41.901790 42.117363 42.332369 42.546728 42.760290 42.972962
43.184586 43.395057 43.604206 43.811919 44.018019 44.222384 44.424830 44.625230
44.823394 45.019192 45.212432 45.402982 45.590650 45.775303 45.956755 46.134875
46.309480 46.480446 46.647598 46.810818 46.969940 47.124857 47.275414 47.421511
47.563010 47.699820 47.831817 47.958923 48.081025 48.198059 48.309928 48.416576
48.517921 48.613920 48.704501 48.789631 48.869253 48.943341 49.011848 49.074756
49.132029 49.183654 49.229602 49.269867 49.304427 49.333278 49.356406 49.373810
49.385481 49.391419 49.391622 49.386091 49.374829 49.357838 49.335128 49.306702
49.272575 49.232754 49.187260 49.136104 49.079314 49.016904 48.948913 48.875360
48.796294 48.711742 48.621763 48.526392 48.425701 48.319735 48.208580 48.092290
47.970965 47.844671 47.713523 47.577599 47.437026 47.291894 47.142346 46.988482
46.830457 46.668382 46.502423 46.332700 46.159389 45.982616 45.802566 45.619369
45.433216 45.244238 45.052631 44.858526 44.662119 44.463538 44.262978 44.060564
43.856485 43.650859 43.443870 43.235628 43.026308 42.816010 42.604899 42.393066
42.180663 41.967769 41.754524 41.540995 41.327309 41.113521 40.899743 40.686019
40.472445 40.259055 40.045932 39.833096 39.620617 39.408504 39.196815 38.985548
38.774747 38.564404 38.354548 38.145163 37.936268 37.727839 37.519885 37.312376
37.105310 36.898653 36.692395 36.486496 36.280940 36.075684 35.870704 35.665957
35.461413 35.257028 35.052766 34.848584 34.644444
35.022222 35.261564 35.500949 35.740418 35.980014 36.219775 36.459745 36.699955
36.940449 37.181251 37.422404 37.663923 37.905848 38.148185 38.390969 38.634196
38.877896 39.122053 39.366688 39.611775 39.857327 40.103304 40.349708 40.596485
40.843628 41.091069 41.338787 41.586698 41.834770 42.082904 42.331053 42.579101
42.826991 43.074588 43.321820 43.568541 43.814661 44.060019 44.304514 44.547970
44.790273 45.031233 45.270727 45.508553 45.744577 45.978590 46.210448 46.439936
46.666905 46.891136 47.112476 47.330703 47.545666 47.757146 47.964990 48.168985
48.368985 48.564782 48.756237 48.943155 49.125404 49.302800 49.475225 49.642509
49.804545 49.961179 50.112317 50.257823 50.397615 50.531575 50.659634 50.781690
50.897687 51.007539 51.111202 51.208605 51.299714 51.384471 51.462852 51.534811
51.600331 51.659377 51.711937 51.757985 51.797514 51.830507 51.856960 51.876861
51.890208 51.896998 51.897229 51.890903 51.878022 51.858592 51.832616 51.800108
51.761072 51.715530 51.663488 51.604976 51.540006 51.468616 51.390823 51.306677
51.216202 51.119459 51.016483 50.907347 50.792097 50.670821 50.543575 50.410466
50.271561 50.126982 49.976813 49.821191 49.660212 49.494032 49.322759 49.146565
48.965570 48.779960 48.589868 48.395491 48.196970 47.994514 47.788270 47.578456
47.365223 47.148792 46.929318 46.707023 46.482060 46.254652 46.024948 45.793166
45.559450 45.324011 45.086984 44.848572 44.608900 44.368160 44.126465 43.883994
43.640847 43.397191 43.153110 42.908756 42.664200 42.419577 42.174946 41.930425
41.686058 41.441946 41.198122 40.954671 40.711611 40.469012 40.226881 39.985273
39.744183 39.503651 39.263664 39.024248 38.785379 38.547074 38.309300 38.072060
37.835317 37.599065 37.363259 37.127884 36.892893 36.658261 36.423939 36.189895
35.956078 35.722450 35.488961 35.255569 35.022222
35.400000 35.669324 35.938695 36.208165 36.477777 36.747582 37.017619 37.287940
37.558575 37.829575 38.100962 38.372785 38.645055 38.917817 39.191071 39.464856
39.739161 40.014016 40.289398 40.565327 40.841767 41.118726 41.396153 41.674046
41.952337 42.231010 42.509981 42.789220 43.068625 43.348151 43.627678 43.907147
44.186419 44.465418 44.743987 45.022035 45.299388 45.575939 45.851496 46.125938
46.399059 46.670721 46.940706 47.208865 47.474967 47.738852 48.000280 48.259084
48.515018 48.767909 49.017508 49.263640 49.506055 49.744581 49.978970 50.209054
50.434593 50.655424 50.871318 51.082123 51.287622 51.487674 51.682079 51.870708
52.053379 52.229978 52.400343 52.564374 52.721927 52.872920 53.017227 53.154781
53.285476 53.409257 53.526037 53.635773 53.738394 53.833870 53.922142 54.003190
54.076969 54.143464 54.202642 54.254495 54.298998 54.336146 54.365924 54.388330
54.403355 54.410998 54.411257 54.404134 54.389632 54.367755 54.338511 54.301906
54.257958 54.206672 54.148076 54.082179 54.009018 53.928609 53.840997 53.746207
53.644298 53.535302 53.419295 53.296317 53.166462 53.029783 52.886390 52.736353
52.579797 52.416808 52.247533 52.072071 51.890588 51.703200 51.510090 51.311390
51.107301 50.897967 50.683606 50.464371 50.240496 50.012143 49.779555 49.542901
49.302432 49.058321 48.810821 48.560106 48.306430 48.049965 47.790961 47.529585
47.266080 47.000605 46.733396 46.464600 46.194440 45.923052 45.650646 45.377342
45.103335 44.828732 44.553710 44.278358 44.002838 43.727223 43.451654 43.176191
42.900956 42.625991 42.351403 42.077217 41.803522 41.530330 41.257712 40.985667
40.714249 40.443446 40.173296 39.903775 39.634908 39.366662 39.099047 38.832023
38.565587 38.299693 38.034326 37.769436 37.504998 37.240957 36.977281 36.713913
36.450811 36.187919 35.925190 35.662568 35.400000
35.777778 36.077103 36.376484 36.675972 36.975626 37.275493 37.575629 37.876077
38.176892 38.478107 38.779775 39.081920 39.384592 39.687800 39.991590 40.295959
40.600945 40.906532 41.212746 41.519557 41.826982 42.134973 42.443534 42.752601
43.062163 43.372137 43.682499 43.993145 44.304036 44.615046 44.926119 45.237112
45.547948 45.858465 46.168568 46.478073 46.786869 47.094753 47.401596 47.707176
48.011349 48.313875 48.614596 48.913258 49.209688 49.503622 49.794876 50.083178
50.368335 50.650069 50.928184 51.202401 51.472522 51.738270 51.999451 52.255792
52.507105 52.753129 52.993685 53.228525 53.457481 53.680321 53.896895 54.106988
54.310464 54.507132 54.696873 54.879516 55.054960 55.223057 55.383724 55.536833
55.682318 55.820072 55.950044 56.072146 56.186340 56.292557 56.390768 56.480919
56.562992 56.636946 56.702768 56.760430 56.809924 56.851231 56.884346 56.909257
56.925964 56.934461 56.934748 56.926827 56.910699 56.886373 56.853849 56.813145
56.764265 56.707232 56.642054 56.568763 56.487374 56.397930 56.300452 56.194996
56.081591 55.960310 55.831194 55.694332 55.549778 55.397640 55.237988 55.070950
54.896613 54.715127 54.526595 54.331190 54.129032 53.920317 53.705182 53.483842
53.256452 53.023246 52.784392 52.540142 52.290676 52.036258 51.777077 51.513410
51.245450 50.973479 50.697694 50.418378 50.135729 49.850028 49.561466 49.270320
48.976773 48.681095 48.383457 48.084117 47.783232 47.481046 47.177703 46.873428
46.568349 46.262673 45.956510 45.650047 45.343378 45.036668 44.729993 44.423498
44.117240 43.811345 43.505852 43.200866 42.896409 42.592569 42.289351 41.986823
41.684979 41.383866 41.083466 40.783810 40.484869 40.186658 39.889137 39.592308
39.296123 39.000571 38.705596 38.411177 38.117252 37.823791 37.530728 37.238023
36.945611 36.653442 36.361452 36.069585 35.777778
36.155556 36.484904 36.814314 37.143847 37.473561 37.803520 38.133773 38.464386
38.795398 39.126874 39.458843 39.791365 40.124459 40.458180 40.792531 41.127561
41.463260 41.799666 42.136753 42.474547 42.813006 43.152143 43.491896 43.832266
44.173169 44.514589 44.856424 45.198638 45.541108 45.883780 46.226507 46.569217
46.911741 47.253985 47.595758 47.936946 48.277336 48.616795 48.955087 49.292061
49.627462 49.961120 50.292762 50.622204 50.949158 51.273426 51.594707 51.912794
52.227378 52.538244 52.845081 53.147668 53.445697 53.738947 54.027113 54.309981
54.587255 54.858728 55.124118 55.383232 55.635803 55.881653 56.120537 56.352293
56.576699 56.793613 57.002836 57.204246 57.397669 57.583003 57.760099 57.928875
58.089205 58.241023 58.384228 58.518770 58.644565 58.761580 58.869749 58.969048
59.059427 59.140871 59.213345 59.276839 59.331327 59.376806 59.413259 59.440685
59.459074 59.468427 59.468742 59.460020 59.442265 59.415480 59.379676 59.334857
59.281041 59.218236 59.146470 59.065752 58.976124 58.877600 58.770235 58.654054
58.529125 58.395485 58.253220 58.102380 57.943072 57.775363 57.599381 57.415210
57.223004 57.022864 56.814970 56.599444 56.376488 56.146245 55.908943 55.664742
55.413893 55.156574 54.893056 54.623533 54.348291 54.067537 53.781571 53.490608
53.194957 52.894838 52.590565 52.282359 51.970533 51.655306 51.336986 51.015784
50.692004 50.365842 50.037591 49.707437 49.375654 49.042412 48.707971 48.372481
48.036181 47.699203 47.361765 47.023979 46.686041 46.348041 46.010153 45.672447
45.335075 44.998086 44.661609 44.325675 43.990391 43.655770 43.321897 42.988770
42.656453 42.324928 41.994241 41.664362 41.335316 41.007063 40.679612 40.352913
40.026960 39.701694 39.377096 39.053102 38.729678 38.406757 38.084296 37.762223
37.440488 37.119016 36.797750 36.476618 36.155556
36.533333 36.892727 37.252190 37.611787 37.971591 38.331659 38.692066 39.052861
39.414115 39.775870 40.138193 40.501114 40.864696 41.228953 41.593942 41.959664
42.326164 42.693427 43.061488 43.430312 43.799922 44.170263 44.541341 44.913082
45.285476 45.658424 46.031898 46.405776 46.780011 47.154455 47.529040 47.903594
48.278027 48.652142 49.025825 49.398855 49.771097 50.142304 50.512320 50.880875
51.247793 51.612784 51.975650 52.336084 52.693873 53.048694 53.400321 53.748418
54.092751 54.432977 54.768854 55.100040 55.426290 55.747263 56.062720 56.372328
56.675853 56.972976 57.263475 57.547048 57.823488 58.092515 58.353940 58.607508
58.853050 59.090337 59.319224 59.539507 59.751066 59.953724 60.147382 60.331892
60.507176 60.673110 60.829635 60.976652 61.114119 61.241957 61.360136 61.468597
61.567322 61.656266 61.735418 61.804748 61.864249 61.913902 61.953705 61.983644
62.003721 62.013930 62.014272 62.004748 61.985361 61.956117 61.917020 61.868084
61.809313 61.740732 61.662348 61.574195 61.476286 61.368668 61.251363 61.124432
60.987908 60.841872 60.686368 60.521500 60.347329 60.163980 59.971535 59.770145
59.559911 59.341012 59.113572 58.877798 58.633835 58.381918 58.122215 57.854988
57.580424 57.298809 57.010350 56.715355 56.414044 56.106743 55.793684 55.475206
55.151548 54.823056 54.489974 54.152650 53.811326 53.466347 53.117950 52.766474
52.412145 52.055291 51.696123 51.334956 50.971983 50.607500 50.241684 49.874807
49.507026 49.138591 48.769635 48.400386 48.030953 47.661539 47.292232 46.923208
46.554533 46.186358 45.818727 45.451768 45.085504 44.720037 44.355374 43.991593
43.628684 43.266704 42.905626 42.545487 42.186247 41.827924 41.470467 41.113876
40.758090 40.403094 40.048818 39.695233 39.342266 38.989873 38.637976 38.286524
37.935435 37.584648 37.234083 36.883671 36.533333
36.911111 37.300573 37.690109 38.079798 38.469709 38.859922 39.250499 39.641518
40.033032 40.425118 40.817816 41.211197 41.605289 42.000158 42.395814 42.792314
43.189652 43.587875 43.986955 44.386926 44.787742 45.189420 45.591891 45.995156
46.399121 46.803768 47.208977 47.614710 48.020821 48.427249 48.833821 49.240451
49.646939 50.053176 50.458934 50.864078 51.268353 51.671600 52.073539 52.473985
52.872634 53.269281 53.663599 54.055362 54.444225 54.829946 55.212165 55.590626
55.964958 56.334897 56.700068 57.060201 57.414921 57.763960 58.106948 58.443624
58.773630 59.096714 59.412535 59.720857 60.021362 60.313831 60.597973 60.873591
61.140421 61.398293 61.646971 61.886311 62.116110 62.336247 62.546550 62.746924
62.937224 63.117379 63.287270 63.446846 63.596014 63.734738 63.862947 63.980618
64.087698 64.184175 64.270011 64.345199 64.409715 64.463557 64.506708 64.539169
64.560933 64.572000 64.572368 64.562040 64.541020 64.509309 64.466918 64.413849
64.350123 64.275741 64.190735 64.095111 63.988911 63.872150 63.744885 63.607140
63.458991 63.300474 63.131687 62.952684 62.763587 62.564468 62.355478 62.136710
61.908345 61.670502 61.423390 61.167153 60.902034 60.628201 60.345925 60.055402
59.756930 59.450726 59.137115 58.816334 58.488727 58.154547 57.814157 57.467820
57.115908 56.758692 56.396550 56.029753 55.658680 55.283597 54.904878 54.522779
54.137664 53.749778 53.359468 52.966960 52.572586 52.176550 51.779163 51.380606
50.981164 50.580996 50.180361 49.779393 49.378324 48.977261 48.576409 48.175852
47.775766 47.376210 46.977334 46.579174 46.181853 45.785385 45.389868 44.995297
44.601745 44.209189 43.817679 43.427177 43.037710 42.649229 42.261740 41.875182
41.489543 41.104753 40.720784 40.337557 39.955033 39.573125 39.191782 38.810916
38.430462 38.050332 37.670454 37.290740 36.911111
37.288889 37.708439 38.128074 38.547874 38.967924 39.388298 39.809084 40.230345
40.652167 41.074602 41.497733 41.921597 42.346271 42.771777 43.198185 43.625497
44.053773 44.482996 44.913212 45.344383 45.776539 46.209619 46.643636 47.078503
47.514212 47.950652 48.387791 48.825490 49.263694 49.702234 50.141032 50.579886
51.018692 51.457220 51.895337 52.332782 52.769397 53.204891 53.639078 54.071641
54.502367 54.930912 55.357043 55.780392 56.200703 56.617591 57.030784 57.439883
57.844601 58.244532 58.639380 59.028737 59.412306 59.789680 60.160568 60.524572
60.881408 61.230697 61.572170 61.905467 62.230339 62.546454 62.853586 63.151433
63.439795 63.718403 63.987087 64.245609 64.493830 64.731547 64.958647 65.174961
65.380401 65.574831 65.758187 65.930359 66.091304 66.240938 66.379233 66.506126
66.621603 66.725617 66.818164 66.899212 66.968760 67.026789 67.073299 67.108281
67.131736 67.143660 67.144055 67.132922 67.110264 67.076086 67.030390 66.973190
66.904487 66.824305 66.732647 66.629547 66.515014 66.389098 66.251815 66.103232
65.943380 65.772346 65.590176 65.396983 65.192833 64.977869 64.752179 64.515936
64.269255 64.012342 63.745342 63.468494 63.181970 62.886045 62.580919 62.266899
61.944213 61.613197 61.274102 60.927293 60.573037 60.211722 59.843630 59.469165
59.088619 58.702403 58.310815 57.914268 57.513059 57.107598 56.698172 56.285184
55.868909 55.449736 55.027920 54.603833 54.177710 53.749898 53.320610 52.890167
52.458756 52.026671 51.594070 51.161218 50.728246 50.295389 49.862750 49.430534
48.998818 48.567774 48.137455 47.708004 47.279449 46.851905 46.425378 45.999956
45.575624 45.152444 44.730383 44.309480 43.889685 43.471016 43.053409 42.636861
42.221297 41.806695 41.392973 40.980092 40.567961 40.156528 39.745699 39.335407
38.925557 38.516073 38.106858 37.697828 37.288889
37.666667 38.116329 38.566081 39.016019 39.466224 39.916795 40.367806 40.819353
41.271499 41.724339 42.177921 42.632335 43.087614 43.543840 44.001028 44.459250
44.918501 45.378839 45.840238 46.302741 46.766298 47.230933 47.696570 48.163212
48.630757 49.099185 49.568363 50.038247 50.508673 50.979569 51.450741 51.922088
52.393382 52.864494 53.335162 53.805228 54.274397 54.742480 55.209151 55.674193
56.137250 56.598078 57.056293 57.511626 57.963672 58.412139 58.856604 59.296759
59.732166 60.162508 60.587340 61.006337 61.419056 61.825173 62.224250 62.615973
62.999918 63.375782 63.743163 64.101778 64.451252 64.791327 65.121657 65.442013
65.752086 66.051677 66.340515 66.618432 66.885195 67.140668 67.384657 67.617056
67.837705 68.046526 68.243393 68.428250 68.601001 68.761611 68.910007 69.046171
69.170049 69.281635 69.380893 69.467822 69.542399 69.604628 69.654494 69.692002
69.717146 69.729928 69.730349 69.718410 69.694114 69.657462 69.608464 69.547119
69.473443 69.387436 69.289126 69.178515 69.055644 68.920522 68.773207 68.613718
68.442134 68.258491 68.062891 67.855391 67.636123 67.405165 67.162683 66.908784
66.643669 66.367474 66.080437 65.782728 65.474623 65.156322 64.828140 64.490308
64.143175 63.787001 63.422167 63.048956 62.667777 62.278932 61.882850 61.479848
61.070368 60.654734 60.233396 59.806678 59.375030 58.938770 58.498343 58.054054
57.606333 57.155472 56.701880 56.245828 55.787703 55.327749 54.866328 54.403656
53.940064 53.475740 53.010983 52.545950 52.080909 51.615986 51.151415 50.687293
50.223821 49.761066 49.299198 48.838258 48.378382 47.919586 47.461978 47.005550
46.550380 46.096442 45.643786 45.192366 44.742209 44.293253 43.845503 43.398882
42.953374 42.508893 42.065404 41.622811 41.181063 40.740060 40.299735 39.859983
39.420728 38.981862 38.543298 38.104932 37.666667
38.044444 38.524237 39.004132 39.484223 39.964615 40.445397 40.926672 41.408519
41.891040 42.374299 42.858397 43.343380 43.829341 44.316311 44.804373 45.293537
45.783873 46.275369 46.768081 47.261971 47.757078 48.253337 48.750765 49.249270
49.748845 50.249367 50.750803 51.252998 51.755891 52.259291 52.763110 53.267121
53.771203 54.275094 54.778641 55.281545 55.783622 56.284536 56.784071 57.281858
57.777649 58.271045 58.761766 59.249389 59.733607 60.213971 60.690157 61.161697
61.628249 62.089335 62.544604 62.993574 63.435890 63.871074 64.298776 64.718528
65.129994 65.532725 65.926403 66.310604 66.685036 67.049309 67.403158 67.746232
68.078299 68.399049 68.708286 69.005740 69.291251 69.564593 69.825641 70.074208
70.310200 70.533470 70.743951 70.941530 71.126165 71.297770 71.456323 71.601764