<?xml version="1.0"?>
<VTKFile type="ImageData" version="0.1" byte_order="LittleEndian">
  <ImageData WholeExtent="0 180 0 180 0 0" Origin="0.0 0.0 0.0" Spacing="0.05 0.05 1">
    <Piece Extent="0 180 0 180 0 0">
      <PointData Scalars="Temperature">
        <DataArray type="Float32" Name="Temperature" format="ascii">
32.000000 32.000000 32.000000 32.000000 32.000000 32.000000 32.000000 32.000000 32.000000 32.000000 32.000000 32.000000 32.000000 32.000000 32.000000 32.000000 32.000000 32.000000 32.000000 32.000000 32.000000 32.000000 32.000000 32.000000 32.000000 32.000000 32.000000 32.000000 32.000000 32.000000 32.000000 32.000000 32.000000 32.000000 32.000000 32.000000 32.000000 32.000000 32.000000 32.000000 32.000000 32.000000 32.000000 32.000000 32.000000 32.000000 32.000000 32.000000 32.000000 32.000000 32.000000 32.000000 32.000000 32.000000 32.000000 32.000000 32.000000 32.000000 32.000000 32.000000 32.000000 32.000000 32.000000 32.000000 32.000000 32.000000 32.000000 32.000000 32.000000 32.000000 32.000000 32.000000 32.000000 32.000000 32.000000 32.000000 32.000000 32.000000 32.000000 32.000000 32.000000 32.000000 32.000000 32.000000 32.000000 32.000000 32.000000 32.000000 32.000000 32.000000 32.000000 32.000000 32.000000 32.000000 32.000000 32.000000 32.000000 32.000000 32.000000 32.000000 32.000000 32.000000 32.000000 32.000000 32.000000 32.000000 32.000000 32.000000 32.000000 32.000000 32.000000 32.000000 32.000000 32.000000 32.000000 32.000000 32.000000 32.000000 32.000000 32.000000 32.000000 32.000000 32.000000 32.000000 32.000000 32.000000 32.000000 32.000000 32.000000 32.000000 32.000000 32.000000 32.000000 32.000000 32.000000 32.000000 32.000000 32.000000 32.000000 32.000000 32.000000 32.000000 32.000000 32.000000 32.000000 32.000000 32.000000 32.000000 32.000000 32.000000 32.000000 32.000000 32.000000 32.000000 32.000000 32.000000 32.000000 32.000000 32.000000 32.000000 32.000000 32.000000 32.000000 32.000000 32.000000 32.000000 32.000000 32.000000 32.000000 32.000000 32.000000 32.000000 32.000000 32.000000 32.000000 32.000000 32.000000 32.000000 32.000000 32.000000 32.000000
32.377778 32.403879 32.429990 32.456121 32.482279 32.508476 32.534718 32.561018 32.587380 32.613816 32.640331 32.666935 32.693630 32.720429 32.747331 32.774347 32.801475 32.828726 32.856095 32.883592 32.911210 32.938958 32.966827 32.994823 33.022936 33.051171 33.079513 33.107967 33.136517 33.165164 33.193889 33.222693 33.251554 33.280470 33.309418 33.338393 33.367369 33.396340 33.425279 33.454177 33.483003 33.511750 33.540383 33.568893 33.597245 33.625428 33.653406 33.681166 33.708672 33.735911 33.762845 33.789461 33.815722 33.841614 33.867101 33.892167 33.916779 33.940922 33.964562 33.987686 34.010261 34.032276 34.053699 34.074520 34.094710 34.114260 34.133144 34.151352 34.168862 34.185666 34.201743 34.217087 34.231681 34.245518 34.258584 34.270875 34.282377 34.293087 34.302995 34.312098 34.320388 34.327862 34.334514 34.340344 34.345344 34.349517 34.352856 34.355363 34.357035 34.357872 34.357873 34.357039 34.355371 34.352867 34.349532 34.345364 34.340369 34.334546 34.327902 34.320437 34.312158 34.303067 34.293173 34.282478 34.270995 34.258724 34.245682 34.231869 34.217305 34.201992 34.185950 34.169185 34.151718 34.133556 34.114723 34.095228 34.075098 34.054341 34.032988 34.011048 33.988554 33.965517 33.941971 33.917928 33.893423 33.868470 33.843105 33.817342 33.791218 33.764747 33.737966 33.710890 33.683556 33.655977 33.628190 33.600209 33.572068 33.543781 33.515381 33.486880 33.458310 33.429681 33.401023 33.372345 33.343675 33.315020 33.286405 33.257835 33.229335 33.200905 33.172569 33.144325 33.116193 33.088172 33.060278 33.032507 33.004873 32.977371 32.950012 32.922790 32.895714 32.868774 32.841978 32.815316 32.788792 32.762397 32.736131 32.709983 32.683955 32.658033 32.632215 32.606490 32.580853 32.555293 32.529803 32.504372 32.478993 32.453653 32.428344 32.403056 32.377778
32.755556 32.807765 32.859995 32.912261 32.964586 33.016985 33.069480 33.122084 33.174819 33.227696 33.280737 33.333948 33.387354 33.440955 33.494774 33.548810 33.603084 33.657589 33.712347 33.767345 33.822603 33.878103 33.933863 33.989861 34.046111 34.102587 34.159298 34.216214 34.273341 34.330643 34.388124 34.445741 34.503495 34.561338 34.619266 34.677227 34.735214 34.793170 34.851083 34.908893 34.966583 35.024091 35.081396 35.138431 35.195174 35.251556 35.307551 35.363088 35.418140 35.472633 35.526541 35.579790 35.632350 35.684150 35.735160 35.785308 35.834567 35.882866 35.930180 35.976441 36.021623 36.065664 36.108540 36.150193 36.190601 36.229709 36.267500 36.303924 36.338965 36.372579 36.404752 36.435446 36.464649 36.492328 36.518474 36.543058 36.566073 36.587496 36.607321 36.625528 36.642115 36.657064 36.670374 36.682033 36.692039 36.700383 36.707065 36.712079 36.715424 36.717098 36.717101 36.715433 36.712094 36.707088 36.700414 36.692079 36.682084 36.670439 36.657144 36.642213 36.625647 36.607464 36.587667 36.566277 36.543297 36.518755 36.492654 36.465027 36.435881 36.405251 36.373148 36.339612 36.304655 36.268325 36.230635 36.191636 36.151348 36.109825 36.067089 36.023199 35.978178 35.932092 35.884965 35.836865 35.787819 35.737899 35.687131 35.635590 35.583303 35.530345 35.476744 35.422576 35.367868 35.312694 35.257081 35.201102 35.144782 35.088193 35.031354 34.974337 34.917160 34.859888 34.802536 34.745167 34.687793 34.630470 34.573207 34.516058 34.459024 34.402156 34.345453 34.288957 34.232666 34.176617 34.120802 34.065254 34.009961 33.954952 33.900212 33.845764 33.791589 33.737706 33.684095 33.630767 33.577703 33.524908 33.472361 33.420063 33.367991 33.316144 33.264496 33.213042 33.161758 33.110633 33.059644 33.008778 32.958010 32.907325 32.856701 32.806118 32.755556
33.133333 33.211665 33.290025 33.368444 33.446947 33.525566 33.604323 33.683252 33.762369 33.841709 33.921285 34.001130 34.081253 34.161685 34.242430 34.323518 34.404945 34.486742 34.568896 34.651435 34.734341 34.817637 34.901299 34.985346 35.069744 35.154511 35.239605 35.325037 35.410757 35.496773 35.583026 35.669519 35.756184 35.843019 35.929950 36.016967 36.103988 36.191001 36.277914 36.364710 36.451293 36.537637 36.623644 36.709282 36.794448 36.879107 36.963151 37.046544 37.129174 37.211001 37.291915 37.371874 37.450765 37.528548 37.605112 37.680415 37.754351 37.826877 37.897891 37.967354 38.035168 38.101297 38.165648 38.228189 38.288833 38.347552 38.404266 38.458952 38.511537 38.562002 38.610282 38.656360 38.700181 38.741731 38.780963 38.817866 38.852399 38.884555 38.914299 38.941628 38.966513 38.988950 39.008919 39.026418 39.041429 39.053953 39.063977 39.071501 39.076520 39.079033 39.079037 39.076533 39.071525 39.064010 39.053999 39.041489 39.026495 39.009016 38.989071 38.966660 38.941807 38.914515 38.884813 38.852704 38.818226 38.781385 38.742222 38.700749 38.657014 38.611031 38.562857 38.512508 38.460050 38.405503 38.348941 38.290387 38.229923 38.167576 38.103436 38.037533 37.969962 37.900760 37.830026 37.757799 37.684184 37.609222 37.533022 37.455626 37.377145 37.297622 37.217169 37.135829 37.053715 36.970867 36.887396 36.803341 36.718811 36.633840 36.548535 36.462925 36.377112 36.291122 36.205051 36.118919 36.032817 35.946758 35.860826 35.775030 35.689445 35.604076 35.518989 35.434183 35.349718 35.265585 35.181837 35.098460 35.015499 34.932935 34.850805 34.769085 34.687805 34.606938 34.526505 34.446475 34.366863 34.287636 34.208801 34.130323 34.052202 33.974402 33.896918 33.819712 33.742772 33.666063 33.589566 33.513246 33.437081 33.361035 33.285084 33.209193 33.133333
33.511111 33.615585 33.720098 33.824686 33.929392 34.034247 34.139295 34.244562 34.350094 34.455910 34.562058 34.668549 34.775430 34.882705 34.990421 35.098573 35.207205 35.316304 35.425911 35.536004 35.646620 35.757727 35.869357 35.981469 36.094090 36.207167 36.320722 36.434691 36.549089 36.663842 36.778959 36.894354 37.010027 37.125885 37.241919 37.358026 37.474188 37.590293 37.706318 37.822140 37.937728 38.052953 38.167777 38.282064 38.395771 38.508755 38.620968 38.732264 38.842591 38.951801 39.059839 39.166556 39.271894 39.375707 39.477938 39.578440 39.677159 39.773954 39.868771 39.961476 40.052018 40.140269 40.226183 40.309642 40.390604 40.468958 40.544670 40.617639 40.687835 40.755167 40.819611 40.881087 40.939575 40.995007 41.047367 41.096595 41.142681 41.185574 41.225268 41.261720 41.294926 41.324853 41.351498 41.374836 41.394866 41.411568 41.424943 41.434979 41.441675 41.445026 41.445032 41.441693 41.435010 41.424989 41.411630 41.394947 41.374940 41.351629 41.325014 41.295124 41.261960 41.225557 41.185919 41.143090 41.097076 41.047930 40.995663 40.940334 40.881960 40.820611 40.756308 40.689131 40.619105 40.546322 40.470813 40.392679 40.311956 40.228756 40.143121 40.055172 39.964955 39.872599 39.778155 39.681760 39.583467 39.483420 39.381674 39.278377 39.173586 39.067450 38.960027 38.851468 38.741828 38.631258 38.519809 38.407631 38.294772 38.181375 38.067485 37.953240 37.838678 37.723932 37.609030 37.494099 37.379162 37.264333 37.149630 37.035159 36.920926 36.807029 36.693468 36.580328 36.467603 36.355367 36.243605 36.132383 36.021678 35.911545 35.801955 35.692953 35.584504 35.476642 35.369328 35.262587 35.156375 35.050707 34.945536 34.840869 34.736656 34.632895 34.529536 34.426567 34.323939 34.221633 34.119600 34.017813 33.916224 33.814803 33.713503 33.612287 33.511111
33.888889 34.019532 34.150223 34.281012 34.411942 34.543069 34.674426 34.806073 34.938036 35.070375 35.203110 35.336299 35.469953 35.604130 35.738831 35.874112 36.009964 36.146438 36.283513 36.421239 36.559583 36.698587 36.838206 36.978477 37.119343 37.260832 37.402873 37.545489 37.688595 37.832203 37.976216 38.120638 38.265358 38.410370 38.555551 38.700884 38.846235 38.991577 39.136765 39.281762 39.426412 39.570671 39.714372 39.857465 39.999774 40.141241 40.281687 40.421046 40.559136 40.695887 40.831113 40.964744 41.096593 41.226589 41.354547 41.480396 41.603957 41.725161 41.843835 41.959913 42.073231 42.183728 42.291250 42.395741 42.497057 42.595151 42.689892 42.781236 42.869067 42.953349 43.033977 43.110922 43.184093 43.253468 43.318965 43.380571 43.438216 43.491890 43.541536 43.587146 43.628675 43.666119 43.699441 43.728639 43.753687 43.774582 43.791307 43.803862 43.812235 43.816427 43.816434 43.812258 43.803901 43.791365 43.774660 43.753789 43.728770 43.699605 43.666322 43.628924 43.587448 43.541899 43.492323 43.438729 43.381175 43.319672 43.254290 43.185044 43.112017 43.035230 42.954779 42.870690 42.783072 42.691959 42.597472 42.499654 42.398636 42.294469 42.187298 42.077178 41.964266 41.848623 41.730416 41.609711 41.486684 41.361403 41.234051 41.104700 40.973536 40.840630 40.706173 40.570235 40.433005 40.294552 40.155063 40.014602 39.873353 39.731373 39.588840 39.445806 39.302440 39.158785 39.015003 38.871127 38.727309 38.583572 38.440057 38.296776 38.153859 38.011309 37.869241 37.727649 37.586636 37.446186 37.306387 37.167216 37.028747 36.890949 36.753882 36.617509 36.481875 36.346938 36.212731 36.079204 35.946380 35.814204 35.682687 35.551770 35.421454 35.291678 35.162432 35.033653 34.905323 34.777379 34.649792 34.522502 34.395473 34.268644 34.141974 34.015405 33.888889
34.266667 34.423511 34.580416 34.737434 34.894631 35.052053 35.209769 35.367816 35.526266 35.685147 35.844530 36.004435 36.164932 36.326028 36.487792 36.650220 36.813376 36.977243 37.141882 37.307261 37.473436 37.640359 37.808080 37.976536 38.145769 38.315700 38.486360 38.657657 38.829611 39.002114 39.175175 39.348669 39.522595 39.696812 39.871307 40.045925 40.220640 40.395282 40.569815 40.744055 40.917956 41.091322 41.264094 41.436069 41.607178 41.777208 41.946086 42.113590 42.279641 42.444015 42.606628 42.767254 42.925807 43.082064 43.235937 43.387209 43.535792 43.681476 43.824177 43.963694 44.099949 44.232749 44.362026 44.487599 44.609407 44.727283 44.841175 44.950931 45.056506 45.157765 45.254673 45.347109 45.435044 45.518377 45.597083 45.671076 45.740339 45.804799 45.864445 45.919217 45.969107 46.014068 46.054096 46.089154 46.119241 46.144328 46.164417 46.179490 46.189547 46.194580 46.194589 46.189575 46.179537 46.164487 46.144423 46.119365 46.089313 46.054295 46.014314 45.969408 45.919581 45.864884 45.805322 45.740958 45.671804 45.597935 45.519366 45.436189 45.348426 45.256181 45.159485 45.058458 44.953137 44.843660 44.730073 44.612528 44.491079 44.365895 44.237037 44.104689 43.968921 43.829928 43.687786 43.542702 43.394758 43.244171 43.091024 42.935541 42.777808 42.618054 42.456363 42.292966 42.127946 41.961531 41.793800 41.624978 41.455139 41.284501 41.113130 40.941235 40.768874 40.596246 40.423398 40.250518 40.077640 39.904940 39.732442 39.560305 39.388541 39.217295 39.046567 38.876486 38.707041 38.538345 38.370375 38.203228 38.036871 37.871384 37.706726 37.542962 37.380039 37.218009 37.056813 36.896485 36.736962 36.578263 36.420320 36.263140 36.106650 35.950844 35.795648 35.641044 35.486956 35.333356 35.180168 35.027354 34.874841 34.722581 34.570504 34.418555 34.266667
34.644444 34.827531 35.010685 35.193979 35.377473 35.561245 35.745345 35.929855 36.114814 36.300307 36.486361 36.673059 36.860419 37.048521 37.237369 37.427039 37.617522 37.808889 38.001114 38.194264 38.388295 38.583267 38.779119 38.975901 39.173533 39.372057 39.571375 39.771517 39.972364 40.173936 40.376095 40.578847 40.782037 40.985656 41.189530 41.393638 41.597789 41.801947 42.005905 42.209613 42.412849 42.615551 42.817485 43.018577 43.218581 43.417413 43.614820 43.810709 44.004820 44.197056 44.387153 44.575010 44.760364 44.943112 45.122995 45.299910 45.473604 45.643978 45.810790 45.973944 46.133209 46.288499 46.439597 46.586424 46.728778 46.866592 46.999681 47.127987 47.251344 47.369704 47.482920 47.590953 47.693674 47.791056 47.882985 47.969442 48.050332 48.125642 48.195292 48.259276 48.317529 48.370047 48.416781 48.457728 48.492852 48.522152 48.545604 48.563207 48.574947 48.580825 48.580836 48.574980 48.563263 48.545686 48.522265 48.492998 48.457915 48.417015 48.370337 48.317883 48.259705 48.195807 48.126255 48.051058 47.970296 47.883983 47.792215 47.695015 47.592495 47.484685 47.371716 47.253627 47.130567 47.002587 46.869853 46.732425 46.590490 46.444116 46.293509 46.138747 45.980049 45.817505 45.651348 45.481672 45.308725 45.132607 44.953573 44.771727 44.587332 44.400490 44.211470 44.020372 43.827465 43.632845 43.436778 43.239355 43.040834 42.841300 42.641002 42.440014 42.238576 42.036748 41.834759 41.632655 41.430649 41.228777 41.027234 40.826040 40.625375 40.425245 40.225809 40.027063 39.829145 39.632037 39.435860 39.240583 39.046307 38.852990 38.660715 38.469428 38.279194 38.089951 37.901746 37.714508 37.528268 37.342948 37.158563 36.975031 36.792350 36.610436 36.429272 36.248772 36.068906 35.889588 35.710777 35.532385 35.354362 35.176624 34.999110 34.821740 34.644444
35.022222 35.231595 35.441048 35.650655 35.860504 36.070658 36.281209 36.492210 36.703754 36.915884 37.128693 37.342210 37.556528 37.771659 37.987696 38.204634 38.422560 38.641453 38.861394 39.082343 39.304374 39.527426 39.751563 39.976707 40.202909 40.430068 40.658226 40.887260 41.117197 41.347893 41.579361 41.811434 42.044110 42.277202 42.510692 42.744370 42.978204 43.211965 43.445604 43.678875 43.911712 44.143854 44.375222 44.605540 44.834716 45.062463 45.288679 45.513069 45.735521 45.955735 46.173595 46.388798 46.601226 46.810577 47.016733 47.219399 47.418457 47.613623 47.804785 47.991668 48.174170 48.352031 48.525158 48.693309 48.856401 49.014212 49.166670 49.313575 49.454866 49.590364 49.720022 49.843680 49.961302 50.072752 50.178002 50.276935 50.369533 50.455698 50.535420 50.608618 50.675286 50.735360 50.788839 50.835674 50.875865 50.909376 50.936208 50.956340 50.969773 50.976495 50.976507 50.969811 50.956405 50.936304 50.909506 50.876034 50.835890 50.789110 50.735695 50.675694 50.609112 50.536013 50.456404 50.370368 50.277916 50.179148 50.074084 49.962841 49.845449 49.722046 49.592670 49.457482 49.316531 49.169999 49.017946 48.860577 48.697964 48.530332 48.357765 48.180507 47.998654 47.812468 47.622054 47.427688 47.229482 47.027728 46.822541 46.614221 46.402888 46.188847 45.972217 45.753305 45.532227 45.309290 45.084603 44.858468 44.630986 44.402449 44.172950 43.942769 43.711985 43.480865 43.249474 43.018062 42.786679 42.555557 42.324731 42.094413 41.864621 41.635546 41.407191 41.179726 40.953136 40.727572 40.503003 40.279557 40.057191 39.836011 39.615960 39.397123 39.179433 38.962953 38.747607 38.533438 38.320360 38.108400 37.897465 37.687561 37.478593 37.270550 37.063332 36.856915 36.651196 36.446136 36.241634 36.037637 35.834046 35.630798 35.427797 35.224968 35.022222
35.400000 35.635710 35.871508 36.107490 36.343732 36.580338 36.817374 37.054945 37.293105 37.531961 37.771554 38.011990 38.253292 38.495567 38.738819 38.983151 39.228549 39.475108 39.722795 39.971697 40.221760 40.473061 40.725523 40.979212 41.234028 41.490023 41.747072 42.005214 42.264300 42.524352 42.785195 43.046836 43.309076 43.571902 43.835093 44.098617 44.362230 44.625883 44.889308 45.152441 45.414994 45.676884 45.937808 46.197667 46.456143 46.713125 46.968283 47.221495 47.472422 47.720935 47.966692 48.209558 48.449191 48.685454 48.918011 49.146725 49.371268 49.591508 49.807131 50.018011 50.223849 50.424530 50.619774 50.809477 50.993382 51.171396 51.343286 51.508974 51.668248 51.821048 51.967184 52.106608 52.239157 52.364795 52.483382 52.594892 52.699207 52.796311 52.886107 52.968586 53.043668 53.111351 53.171573 53.224333 53.269587 53.307335 53.337546 53.360222 53.375345 53.382917 53.382931 53.375389 53.360297 53.337656 53.307484 53.269781 53.224580 53.171881 53.111731 53.044132 52.969147 52.886779 52.797112 52.700153 52.596003 52.484679 52.366301 52.240896 52.108606 51.969469 51.823651 51.671201 51.512310 51.347040 51.175608 50.998090 50.814725 50.625604 50.430991 50.230989 50.025882 49.815786 49.601004 49.381662 49.158080 48.930391 48.698926 48.463822 48.225422 47.983862 47.739490 47.492440 47.243061 46.991481 46.738045 46.482875 46.226306 45.968450 45.709630 45.449944 45.189703 44.928989 44.668093 44.407082 44.146229 43.885580 43.625388 43.365681 43.106688 42.848419 42.591080 42.334662 42.079345 41.825105 41.572097 41.320280 41.069784 40.820552 40.572692 40.326133 40.080958 39.837084 39.594571 39.353328 39.113391 38.874661 38.637154 38.400764 38.165487 37.931212 37.697918 37.465491 37.233894 37.003012 36.772791 36.543118 36.313927 36.085108 35.856581 35.628241 35.400000
35.777778 36.039880 36.302084 36.564486 36.827194 37.090292 37.353894 37.618071 37.882940 38.148555 38.415037 38.682421 38.950828 39.220274 39.490876 39.762630 40.035648 40.309904 40.585501 40.862391 41.140667 41.420256 41.701240 41.983521 42.267165 42.552048 42.838221 43.125533 43.414017 43.703496 43.993983 44.285273 44.577362 44.870015 45.163208 45.456681 45.750390 46.044048 46.337591 46.630710 46.923321 47.215094 47.505925 47.795468 48.083604 48.369969 48.654431 48.936617 49.216382 49.493348 49.767362 50.038042 50.305234 50.568557 50.827857 51.082760 51.333116 51.578564 51.818958 52.053955 52.283420 52.507028 52.724657 52.936006 53.140967 53.339263 53.530803 53.715337 53.892788 54.062937 54.225720 54.380946 54.528567 54.668416 54.800462 54.924562 55.040696 55.148744 55.248696 55.340456 55.424017 55.499305 55.566319 55.625001 55.675353 55.717334 55.750946 55.776164 55.792989 55.801409 55.801425 55.793038 55.776248 55.751070 55.717502 55.675573 55.625280 55.566667 55.499733 55.424539 55.341085 55.249450 55.149641 55.041755 54.925805 54.801912 54.670099 54.530509 54.383176 54.228271 54.065840 53.896080 53.719054 53.534987 53.343955 53.146211 52.941849 52.731149 52.514220 52.291367 52.062713 51.828588 51.589127 51.344680 51.095391 50.841626 50.583539 50.321505 50.055682 49.786454 49.513977 49.238640 48.960592 48.680221 48.397671 48.113321 47.827303 47.539987 47.251492 46.962171 46.672127 46.381697 46.090964 45.800243 45.509599 45.219323 44.929460 44.640275 44.351793 44.064253 43.777658 43.492220 43.207923 42.924951 42.643267 42.363030 42.084185 41.806863 41.530992 41.256676 40.983831 40.712534 40.442688 40.174345 39.907397 39.641874 39.377659 39.114759 38.853051 38.592521 38.333043 38.074582 37.817011 37.560277 37.304254 37.048873 36.794009 36.539580 36.285464 36.031568 35.777778
36.155556 36.444111 36.732777 37.021671 37.310891 37.600564 37.890774 38.181651 38.473265 38.765748 39.059152 39.353608 39.649150 39.945906 40.243888 40.543220 40.843889 41.146014 41.449555 41.754623 42.061152 42.369238 42.678790 42.989889 43.302415 43.616433 43.931793 44.248541 44.566498 44.885689 45.205905 45.527150 45.849184 46.171989 46.495294 46.819059 47.142985 47.467009 47.790803 48.114284 48.437098 48.759139 49.080034 49.399657 49.717615 50.033766 50.347702 50.659267 50.968044 51.273866 51.576310 51.875203 52.170123 52.460895 52.747101 53.028569 53.304892 53.575903 53.841212 54.100661 54.353882 54.600728 54.840855 55.074134 55.300246 55.519081 55.730349 55.933957 56.129647 56.317344 56.496820 56.668019 56.830743 56.984950 57.130474 57.267285 57.395246 57.514338 57.624448 57.725567 57.817605 57.900559 57.974360 58.039008 58.094453 58.140697 58.177706 58.205482 58.224006 58.233280 58.233299 58.224062 58.205577 58.177844 58.140886 58.094698 58.039319 57.974747 57.901037 57.818186 57.726268 57.625286 57.515334 57.396420 57.268663 57.132079 56.986812 56.832890 56.670485 56.499638 56.320551 56.133281 55.938061 55.734965 55.524256 55.306029 55.080576 54.848010 54.608654 54.362638 54.110311 53.851821 53.587540 53.317627 53.042479 52.762263 52.477391 52.188037 51.894624 51.597327 51.296575 50.992543 50.685658 50.376087 50.064256 49.750320 49.434693 49.117518 48.799195 48.479849 48.159861 47.839337 47.518635 47.197841 46.877289 46.557039 46.237400 45.918409 45.600346 45.283224 44.967293 44.652546 44.339199 44.027224 43.716807 43.407899 43.100657 42.795012 42.491090 42.188806 41.888258 41.589344 41.292135 40.996516 40.702532 40.410057 40.119110 39.829558 39.541395 39.254484 38.968796 38.684190 38.400616 38.117934 37.836076 37.554901 37.274326 36.994213 36.714464 36.434949 36.155556
36.533333 36.848405 37.163603 37.479043 37.794859 38.111153 38.428067 38.745686 39.064155 39.383541 39.703992 40.025553 40.348371 40.672470 40.997990 41.324932 41.653431 41.983459 42.315143 42.648427 42.983426 43.320054 43.658411 43.998383 44.340049 44.683265 45.028092 45.374351 45.722082 46.071073 46.421341 46.772641 47.124966 47.478036 47.831820 48.186005 48.540535 48.895066 49.249516 49.603513 49.956949 50.309428 50.660818 51.010699 51.358920 51.705043 52.048900 52.390036 52.728271 53.063143 53.394461 53.721760 54.044843 54.363251 54.676786 54.984997 55.287691 55.584433 55.875038 56.159092 56.436424 56.706643 56.969596 57.224920 57.472482 57.711951 57.943213 58.165972 58.380134 58.585437 58.781809 58.969021 59.147020 59.315610 59.474756 59.624293 59.764198 59.894338 60.014700 60.125177 60.225765 60.316378 60.397021 60.467628 60.528205 60.578706 60.619136 60.649467 60.669703 60.679830 60.679850 60.669764 60.649573 60.619291 60.578915 60.528478 60.467973 60.397451 60.316906 60.226407 60.125950 60.015625 59.895434 59.765491 59.625807 59.476520 59.317654 59.149377 58.971725 58.784898 58.588951 58.384115 58.170464 57.948266 57.717613 57.478808 57.231965 56.977420 56.715307 56.445995 56.169637 55.886630 55.597145 55.301604 55.000190 54.693346 54.381265 54.064406 53.742964 53.417409 53.087936 52.755017 52.418844 52.079886 51.738324 51.394619 51.048939 50.701730 50.353144 50.003608 49.653253 49.302483 48.951406 48.600401 48.249549 47.899203 47.549416 47.200511 46.852515 46.505718 46.160123 45.815983 45.473280 45.132233 44.792799 44.455163 44.119260 43.785244 43.453030 43.122738 42.794265 42.467701 42.142928 41.820006 41.498804 41.179352 40.861510 40.545282 40.230519 39.917201 39.605174 39.294395 38.984706 38.676044 38.368252 38.061246 37.754874 37.449034 37.143579 36.838391 36.533333
36.911111 37.252770 37.594561 37.936629 38.279093 38.622104 38.965766 39.310236 39.655599 40.002015 40.349548 40.698358 41.048486 41.400088 41.753180 42.107913 42.464276 42.822410 43.182273 43.543998 43.907510 44.272926 44.640141 45.009252 45.380122 45.752827 46.127195 46.503280 46.880872 47.260003 47.640425 48.022144 48.404876 48.788600 49.172994 49.558009 49.943291 50.328760 50.714030 51.098992 51.483230 51.866611 52.248688 52.629305 53.007993 53.384574 53.758561 54.129759 54.497668 54.862078 55.222485 55.578672 55.930131 56.276645 56.617714 56.953120 57.282379 57.605282 57.921362 58.230424 58.532027 58.825992 59.111910 59.389621 59.658749 59.919159 60.170509 60.412689 60.645396 60.868540 61.081860 61.285286 61.478595 61.661737 61.834524 61.996925 62.148782 62.290081 62.420694 62.540616 62.649746 62.748088 62.835562 62.912177 62.977876 63.032667 63.076511 63.109416 63.131359 63.142345 63.142367 63.131427 63.109533 63.076682 63.032899 62.978177 62.912558 62.836035 62.748668 62.650451 62.541464 62.421706 62.291281 62.150195 61.998579 61.836449 61.663967 61.481163 61.288233 61.085223 60.872364 60.649726 60.417574 60.176001 59.925312 59.665621 59.397273 59.120406 58.835400 58.542416 58.241869 57.933940 57.619075 57.297472 56.969602 56.635674 56.296183 55.951345 55.601666 55.247366 54.888959 54.526663 54.160990 53.792150 53.420650 53.046687 52.670754 52.293031 51.913993 51.533799 51.152901 50.771433 50.389820 50.008168 49.626875 49.246016 48.865956 48.486742 48.108704 47.731861 47.356506 46.982631 46.610491 46.240051 45.871530 45.504870 45.140251 44.777592 44.417039 44.058489 43.702053 43.347612 42.995244 42.644812 42.296364 41.949750 41.604987 41.261918 40.920530 40.580659 40.242266 39.905184 39.569350 39.234595 38.900834 38.567899 38.235689 37.904037 37.572824 37.241894 36.911111
37.288889 37.657203 38.025668 38.394422 38.763627 39.133405 39.503924 39.875288 40.247670 40.621153 40.995911 41.372004 41.749603 42.128742 42.509589 42.892148 43.276578 43.662855 44.051125 44.441332 44.833609 45.227862 45.624210 46.022522 46.422895 46.825162 47.229396 47.635393 48.043199 48.452571 48.863526 49.275782 49.689327 50.103838 50.519274 50.935273 51.351762 51.768340 52.184906 52.601023 53.016558 53.431045 53.844321 54.255892 54.665571 55.072839 55.477489 55.878984 56.277099 56.671288 57.061313 57.446625 57.826980 58.201832 58.570937 58.933760 59.290065 59.639335 59.981344 60.315601 60.641898 60.959775 61.269044 61.569282 61.860327 62.141792 62.413542 62.675232 62.926755 63.167808 63.398308 63.617994 63.826807 64.024528 64.211118 64.386394 64.550335 64.702793 64.843761 64.973120 65.090873 65.196928 65.291295 65.373905 65.444768 65.503837 65.551122 65.586592 65.610256 65.622098 65.622123 65.610332 65.586722 65.551310 65.504092 65.445099 65.374322 65.291814 65.197563 65.091643 64.974045 64.844864 64.704099 64.551872 64.388191 64.213208 64.026946 63.829592 63.621185 63.401949 63.171945 62.931439 62.680514 62.419477 62.148440 61.867750 61.577545 61.278217 60.969928 60.653110 60.327949 59.994914 59.654212 59.306343 58.951533 58.590304 58.222896 57.849850 57.471411 57.088133 56.700260 56.308350 55.912640 55.513687 55.111714 54.707267 54.300553 53.892101 53.482096 53.071043 52.659103 52.246751 51.834121 51.421657 51.009461 50.597943 50.187172 49.777522 49.369030 48.962030 48.556531 48.152824 47.750888 47.350977 46.953039 46.557288 46.163647 45.772291 45.383119 44.996268 44.611615 44.229261 43.849066 43.471094 43.095192 42.721389 42.349519 41.979583 41.611404 41.244953 40.880049 40.516636 40.154528 39.793647 39.433806 39.074903 38.716758 38.359247 38.002196 37.645465 37.288889
37.666667 38.061713 38.456917 38.852448 39.248449 39.645098 40.042521 40.440901 40.840343 41.241034 41.643053 42.046589 42.451693 42.858551 43.267186 43.677774 44.090308 44.504955 44.921674 45.340616 45.761705 46.185075 46.610613 47.038431 47.468377 47.900540 48.334725 48.770996 49.209116 49.649119 50.090724 50.533937 50.978431 51.424179 51.870813 52.318271 52.766143 53.214332 53.662390 54.110186 54.557234 55.003372 55.448079 55.891164 56.332079 56.770606 57.206174 57.638543 58.067127 58.491670 58.911578 59.326584 59.736094 60.139838 60.537230 60.928005 61.311592 61.687735 62.055890 62.415816 62.767001 63.109226 63.442015 63.765177 64.078277 64.381152 64.673412 64.954925 65.225347 65.484576 65.732313 65.968486 66.192840 66.405327 66.605736 66.794040 66.970066 67.133805 67.285118 67.424009 67.550369 67.664211 67.765452 67.854107 67.930119 67.993500 68.044214 68.082270 68.107647 68.120353 68.120380 68.107730 68.082412 68.044420 67.993780 67.930480 67.854564 67.766017 67.664903 67.551206 67.425013 67.286314 67.135220 66.971729 66.795983 66.607994 66.407937 66.195843 65.971926 65.736236 65.489031 65.230387 64.960607 64.679795 64.388299 64.086254 63.774056 63.451868 63.120131 62.779038 62.429073 62.070454 61.703702 61.329058 60.947074 60.558007 60.162434 59.760623 59.353168 58.940339 58.522739 58.100635 57.674631 57.244982 56.812285 56.376778 55.939043 55.499297 55.058097 54.615637 54.172443 53.728680 53.284841 52.841058 52.397789 51.955129 51.513498 51.072956 50.633881 50.196299 49.760544 49.326609 48.894785 48.465033 48.037601 47.612420 47.189695 46.769330 46.351489 45.936052 45.523141 45.112616 44.704561 44.298817 43.895432 43.494232 43.095230 42.698241 42.303246 41.910051 41.518609 41.128720 40.740309 40.353175 39.967217 39.582239 39.198115 38.814653 38.431710 38.049102 37.666667