# vtk DataFile Version 3.0
Steady-state temperature (Jacobi)
ASCII
DATASET STRUCTURED_POINTS
DIMENSIONS 181 181 1
ORIGIN 0.0 0.0 0.0
SPACING 0.05 0.05 1.0
POINT_DATA 32761
SCALARS Temperature float 1
LOOKUP_TABLE default
32.000000 32.000000 32.000000 32.000000 32.000000 32.000000 32.000000 32.000000
32.000000 32.000000 32.000000 32.000000 32.000000 32.000000 32.000000 32.000000
32.000000 32.000000 32.000000 32.000000 32.000000 32.000000 32.000000 32.000000
32.000000 32.000000 32.000000 32.000000 32.000000 32.000000 32.000000 32.000000
32.000000 32.000000 32.000000 32.000000 32.000000 32.000000 32.000000 32.000000
32.000000 32.000000 32.000000 32.000000 32.000000 32.000000 32.000000 32.000000
32.000000 32.000000 32.000000 32.000000 32.000000 32.000000 32.000000 32.000000
32.000000 32.000000 32.000000 32.000000 32.000000 32.000000 32.000000 32.000000
32.000000 32.000000 32.000000 32.000000 32.000000 32.000000 32.000000 32.000000
32.000000 32.000000 32.000000 32.000000 32.000000 32.000000 32.000000 32.000000
32.000000 32.000000 32.000000 32.000000 32.000000 32.000000 32.000000 32.000000
32.000000 32.000000 32.000000 32.000000 32.000000 32.000000 32.000000 32.000000
32.000000 32.000000 32.000000 32.000000 32.000000 32.000000 32.000000 32.000000
32.000000 32.000000 32.000000 32.000000 32.000000 32.000000 32.000000 32.000000
32.000000 32.000000 32.000000 32.000000 32.000000 32.000000 32.000000 32.000000
32.000000 32.000000 32.000000 32.000000 32.000000 32.000000 32.000000 32.000000
32.000000 32.000000 32.000000 32.000000 32.000000 32.000000 32.000000 32.000000
32.000000 32.000000 32.000000 32.000000 32.000000 32.000000 32.000000 32.000000
32.000000 32.000000 32.000000 32.000000 32.000000 32.000000 32.000000 32.000000
32.000000 32.000000 32.000000 32.000000 32.000000 32.000000 32.000000 32.000000
32.000000 32.000000 32.000000 32.000000 32.000000 32.000000 32.000000 32.000000
32.000000 32.000000 32.000000 32.000000 32.000000 32.000000 32.000000 32.000000
32.000000 32.000000 32.000000 32.000000 32.000000
32.377778 32.370939 32.364132 32.357394 32.350749 32.344241 32.337889 32.331739
32.325805 32.320138 32.314744 32.309679 32.304941 32.300590 32.296617 32.293086
32.289978 32.287362 32.285210 32.283594 32.282478 32.281935 32.281921 32.282513
32.283654 32.285426 32.287763 32.290746 32.294301 32.298511 32.303291 32.308727
32.314724 32.321368 32.328554 32.336370 32.344702 32.353639 32.363056 32.373044
32.383471 32.394426 32.405770 32.417594 32.429750 32.442330 32.455181 32.468394
32.481812 32.495526 32.509376 32.523453 32.537595 32.551891 32.566181 32.580553
32.594847 32.609152 32.623309 32.637407 32.651292 32.665050 32.678533 32.691826
32.704786 32.717497 32.729824 32.741848 32.753443 32.764685 32.775460 32.785839
32.795716 32.805161 32.814077 32.822529 32.830430 32.837838 32.844679 32.851005
32.856752 32.861965 32.866590 32.870665 32.874150 32.877070 32.879398 32.881152
32.882316 32.882897 32.882890 32.882295 32.881119 32.879351 32.877008 32.874073
32.870573 32.866481 32.861838 32.856607 32.850840 32.844492 32.837628 32.830195
32.822267 32.813787 32.804840 32.795361 32.785448 32.775030 32.764213 32.752926
32.741283 32.729207 32.716824 32.704054 32.691030 32.677669 32.664114 32.650279
32.636312 32.622127 32.607877 32.593475 32.579078 32.564598 32.550194 32.535778
32.521511 32.507303 32.493316 32.479458 32.465891 32.452523 32.439511 32.426765
32.414437 32.402436 32.390910 32.379767 32.369149 32.358965 32.349348 32.340208
32.331671 32.323646 32.316250 32.309394 32.303186 32.297538 32.292547 32.288127
32.284366 32.281179 32.278643 32.276678 32.275349 32.274577 32.274419 32.274799
32.275764 32.277240 32.279265 32.281767 32.284777 32.288227 32.292137 32.296442
32.301156 32.306218 32.311631 32.317341 32.323343 32.329586 32.336060 32.342716
32.349538 32.356484 32.363529 32.370637 32.377778
32.755556 32.741896 32.728305 32.714840 32.701581 32.688572 32.675903 32.663606
32.651781 32.640445 32.629707 32.619572 32.610154 32.601444 32.593565 32.586490
32.580351 32.575103 32.570885 32.567634 32.565496 32.564390 32.564467 32.565626
32.568025 32.571543 32.576341 32.582281 32.589527 32.597918 32.607626 32.618468
32.630617 32.643874 32.658412 32.674013 32.690852 32.708693 32.727712 32.747655
32.768700 32.790577 32.813464 32.837076 32.861594 32.886718 32.912629 32.939019
32.966067 32.993459 33.021373 33.049489 33.077985 33.106540 33.135331 33.164036
33.192832 33.221402 33.249921 33.278077 33.306043 33.333519 33.360673 33.387217
33.413317 33.438698 33.463521 33.487528 33.510875 33.533320 33.555014 33.575733
33.595621 33.614474 33.632425 33.649293 33.665199 33.679985 33.693758 33.706382
33.717952 33.728353 33.737665 33.745796 33.752810 33.758637 33.763324 33.766824
33.769166 33.770325 33.770312 33.769125 33.766757 33.763229 33.758514 33.752656
33.745611 33.737447 33.728100 33.717661 33.706051 33.693384 33.679565 33.664730
33.648770 33.631844 33.613831 33.594911 33.574951 33.554154 33.532376 33.509841
33.486397 33.462287 33.437352 33.411852 33.385625 33.358945 33.331646 33.304016
33.275886 33.247556 33.218854 33.190089 33.161087 33.132166 33.103147 33.074353
33.045605 33.017227 32.989038 32.961360 32.934013 32.907314 32.881081 32.855624
32.830763 32.806796 32.783544 32.761294 32.739865 32.719531 32.700112 32.681866
32.664614 32.648597 32.633638 32.619959 32.607385 32.596120 32.585990 32.577180
32.569521 32.563175 32.557978 32.554073 32.551299 32.549780 32.549360 32.550141
32.551976 32.554947 32.558911 32.563934 32.569877 32.576791 32.584542 32.593165
32.602533 32.612664 32.623440 32.634863 32.646824 32.659309 32.672219 32.685528
32.699142 32.713024 32.727091 32.741292 32.755556
33.133333 33.112894 33.092549 33.072410 33.052555 33.033110 33.014134 32.995769
32.978054 32.961143 32.945054 32.929957 32.915845 32.902900 32.891094 32.880618
32.871418 32.863699 32.857380 32.852675 32.849476 32.848006 32.848129 32.850077
32.853684 32.859189 32.866397 32.875554 32.886435 32.899290 32.913866 32.930417
32.948658 32.968851 32.990678 33.014406 33.039688 33.066792 33.095347 33.125622
33.157218 33.190407 33.224769 33.260574 33.297382 33.335465 33.374365 33.414353
33.454960 33.496455 33.538359 33.580941 33.623717 33.666955 33.710170 33.753629
33.796849 33.840096 33.882895 33.925509 33.967476 34.009054 34.049799 34.089962
34.129120 34.167519 34.204756 34.241073 34.276091 34.310042 34.342576 34.373914
34.403736 34.432248 34.459162 34.484670 34.508516 34.530873 34.551519 34.570607
34.587948 34.603674 34.617630 34.629924 34.640435 34.649244 34.656268 34.661559
34.665067 34.666820 34.666800 34.665007 34.661458 34.656125 34.649059 34.640204
34.629646 34.617303 34.603294 34.587512 34.570111 34.550959 34.530244 34.507812
34.483886 34.458292 34.431284 34.402671 34.372741 34.341287 34.308627 34.274541
34.239377 34.202905 34.165500 34.126923 34.087574 34.047207 34.006245 33.964436
33.922223 33.879349 33.836273 33.792735 33.749206 33.705423 33.661866 33.618269
33.575116 33.532140 33.489824 33.447899 33.406846 33.366392 33.327010 33.288428
33.251105 33.214768 33.179860 33.146109 33.113938 33.083076 33.053922 33.026209
33.000309 32.975957 32.953499 32.932672 32.913796 32.896609 32.881401 32.867918
32.856417 32.846650 32.838846 32.832760 32.828592 32.826104 32.825467 32.826450
32.829196 32.833481 32.839421 32.846802 32.855710 32.865943 32.877562 32.890374
32.904416 32.919505 32.935656 32.952697 32.970621 32.989268 33.008611 33.028504
33.048898 33.069662 33.090728 33.111980 33.133333
33.511111 33.483943 33.456914 33.430138 33.403775 33.377916 33.352742 33.328317
33.304840 33.282349 33.261061 33.240985 33.222354 33.205147 33.189613 33.175698
33.163666 33.153429 33.145265 33.139050 33.135074 33.133177 33.133661 33.136326
33.141487 33.148903 33.158897 33.171190 33.186114 33.203348 33.223231 33.245401
33.270204 33.297239 33.326855 33.358613 33.392865 33.429135 33.467779 33.508284
33.551009 33.595408 33.641842 33.689735 33.739450 33.790385 33.842902 33.896380
33.951182 34.006670 34.063205 34.120141 34.177837 34.235645 34.293919 34.352014
34.410284 34.468088 34.525778 34.582729 34.639287 34.694845 34.749746 34.803405
34.856159 34.907452 34.957611 35.006114 35.053277 35.098613 35.142423 35.184263
35.224415 35.262475 35.298709 35.332753 35.364852 35.394687 35.422475 35.447943
35.471282 35.492262 35.511043 35.527442 35.541586 35.553338 35.562788 35.569846
35.574567 35.576905 35.576878 35.574487 35.569711 35.562598 35.553090 35.541279
35.527072 35.510607 35.491755 35.470700 35.447282 35.421728 35.393847 35.363914
35.331708 35.297548 35.261190 35.222996 35.182699 35.140704 35.096726 35.051210
35.003854 34.955143 34.904761 34.853230 34.800222 34.746290 34.691101 34.635234
34.578349 34.521050 34.462992 34.404798 34.346118 34.287590 34.228860 34.170574
34.112375 34.054913 33.997829 33.941768 33.886371 33.832272 33.779112 33.727512
33.677111 33.628509 33.581346 33.536199 33.492707 33.451420 33.411977 33.374896
33.339819 33.307229 33.276772 33.248893 33.223242 33.200226 33.179500 33.161430
33.145680 33.132575 33.121786 33.113597 33.107688 33.104305 33.103135 33.104386
33.107756 33.113416 33.121074 33.130864 33.142508 33.156103 33.171387 33.188422
33.206959 33.227030 33.248401 33.271073 33.294827 33.319638 33.345302 33.371768
33.398849 33.426469 33.454461 33.482724 33.511111
33.888889 33.855074 33.821419 33.788111 33.755279 33.723136 33.691782 33.661454
33.632217 33.604333 33.577831 33.552994 33.529814 33.508595 33.489290 33.472222
33.457300 33.444867 33.434788 33.427422 33.422591 33.420666 33.421421 33.425245
33.431860 33.441668 33.454343 33.470296 33.489151 33.511328 33.536400 33.564796
33.596038 33.630562 33.667840 33.708314 33.751406 33.797563 33.846163 33.897654
33.951371 34.007765 34.066132 34.126924 34.189403 34.254021 34.320011 34.387826
34.456676 34.527011 34.598029 34.670176 34.742641 34.815870 34.889050 34.962623
35.035784 35.108970 35.181391 35.253480 35.324466 35.394777 35.463668 35.531561
35.597745 35.662630 35.725545 35.786889 35.846032 35.903359 35.958287 36.011182
36.061513 36.109622 36.155032 36.198058 36.238277 36.275978 36.310789 36.342968
36.372201 36.398706 36.422227 36.442943 36.460655 36.475498 36.487331 36.496246
36.502157 36.505110 36.505077 36.502057 36.496078 36.487094 36.475189 36.460271
36.442481 36.421682 36.398073 36.371475 36.342142 36.309856 36.274929 36.237105
36.196752 36.153581 36.108017 36.059740 36.009228 35.956139 35.901001 35.843449
35.784064 35.722461 35.659267 35.594084 35.527582 35.459350 35.390096 35.319401
35.248006 35.175482 35.102601 35.028928 34.955254 34.881139 34.807390 34.733563
34.660470 34.587666 34.515962 34.444910 34.375315 34.306726 34.239932 34.174483
34.111144 34.049467 33.990189 33.932860 33.878185 33.825716 33.776119 33.728947
33.684826 33.643311 33.604984 33.569404 33.537104 33.507650 33.481525 33.458304
33.438418 33.421451 33.407784 33.397010 33.389461 33.384741 33.383131 33.384249
33.388329 33.395000 33.404450 33.416325 33.430768 33.447438 33.466437 33.487442
33.510512 33.535344 33.561959 33.590071 33.619665 33.650477 33.682456 33.715359
33.749104 33.783471 33.818345 33.853532 33.888889
34.266667 34.226292 34.186127 34.146347 34.107192 34.068801 34.031447 33.995228
33.960446 33.927159 33.895695 33.866068 33.838632 33.813355 33.790613 33.770326
33.752894 33.738185 33.726618 33.718008 33.712795 33.710735 33.712287 33.717150
33.725798 33.737870 33.753854 33.773329 33.796795 33.823771 33.854765 33.889236
33.927701 33.969558 34.015331 34.064359 34.117172 34.173051 34.232531 34.294839
34.360513 34.428729 34.500029 34.573544 34.649815 34.727938 34.808451 34.890421
34.974384 35.059383 35.145954 35.233125 35.321429 35.409888 35.499034 35.587891
35.676986 35.765357 35.853525 35.940551 36.026948 36.111806 36.195633 36.277553
36.358064 36.436334 36.512850 36.586828 36.658739 36.727855 36.794625 36.858381
36.919549 36.977522 37.032697 37.084532 37.133392 37.178800 37.221083 37.259832
37.295334 37.327245 37.355806 37.380744 37.402249 37.420116 37.434482 37.445212
37.452388 37.455943 37.455903 37.452268 37.445011 37.434198 37.419745 37.401789
37.380190 37.355153 37.326486 37.294463 37.258842 37.219963 37.177542 37.131985
37.082965 37.030957 36.975596 36.917422 36.856037 36.792048 36.725026 36.655640
36.583439 36.509149 36.432300 36.353672 36.272780 36.190452 36.106192 36.020871
35.933982 35.846436 35.757715 35.668760 35.579049 35.489542 35.399713 35.310536
35.221479 35.133520 35.046125 34.960267 34.875410 34.792511 34.711034 34.631913
34.554611 34.480034 34.407641 34.338303 34.271480 34.207999 34.147322 34.090226
34.036179 33.985903 33.938870 33.895748 33.856013 33.820275 33.788018 33.759791
33.735088 33.714398 33.697225 33.683997 33.674230 33.668294 33.665719 33.666814
33.671126 33.678908 33.689723 33.703769 33.720628 33.740445 33.762821 33.787852
33.815160 33.844793 33.876395 33.909969 33.945183 33.981997 34.020106 34.059428
34.099683 34.140754 34.182389 34.224434 34.266667
34.644444 34.597631 34.551044 34.504948 34.459527 34.415083 34.371756 34.329883
34.289557 34.251148 34.214698 34.180608 34.148868 34.119908 34.093662 34.070585
34.050555 34.034053 34.020893 34.011579 34.005862 34.004268 34.006480 34.013043
34.023574 34.038633 34.057765 34.081549 34.109457 34.142079 34.178818 34.220274
34.265777 34.315938 34.370016 34.428628 34.490965 34.557650 34.627810 34.702069
34.779495 34.860714 34.944738 35.032194 35.122046 35.214922 35.309744 35.407138
35.505996 35.606942 35.708845 35.812326 35.916243 36.021213 36.126094 36.231499
36.336293 36.441086 36.544763 36.647927 36.749493 36.850056 36.948571 37.045622
37.140212 37.232912 37.322780 37.410371 37.494805 37.576615 37.654989 37.730435
37.802210 37.870794 37.935518 37.996827 38.054127 38.107821 38.157396 38.203208
38.244822 38.282543 38.316016 38.345490 38.370689 38.391804 38.408636 38.421315
38.429723 38.433923 38.433877 38.429583 38.421081 38.408304 38.391371 38.370152
38.344844 38.315254 38.281659 38.243806 38.202053 38.156091 38.106355 38.052487
37.995000 37.933490 37.868548 37.799729 37.727702 37.651983 37.573317 37.491191
37.406419 37.318465 37.228207 37.135090 37.040055 36.942529 36.843507 36.742405
36.640266 36.536494 36.432173 36.326699 36.221186 36.115023 36.009345 35.903537
35.798741 35.694341 35.591477 35.489529 35.389628 35.291149 35.195203 35.101163
35.010109 34.921413 34.836115 34.753588 34.674823 34.599194 34.527639 34.459534
34.395758 34.335691 34.280145 34.228508 34.181526 34.138592 34.100383 34.066301
34.036954 34.011754 33.991237 33.974831 33.963000 33.955186 33.951785 33.952256
33.956928 33.965278 33.977570 33.993301 34.012672 34.035204 34.061035 34.089712
34.121316 34.155417 34.192044 34.230794 34.271643 34.314219 34.358447 34.403985
34.450715 34.498327 34.546657 34.595431 34.644444
35.022222 34.969091 34.916243 34.863914 34.812431 34.761982 34.712934 34.665423
34.619854 34.576307 34.535225 34.496629 34.460995 34.428283 34.399001 34.373043
34.350947 34.332537 34.318380 34.308228 34.302673 34.301392 34.305000 34.313096
34.326316 34.344180 34.367342 34.395240 34.428544 34.466609 34.510119 34.558347
34.611987 34.670232 34.733782 34.801752 34.874848 34.952108 35.034243 35.120218
35.210747 35.304729 35.402877 35.504031 35.608905 35.716286 35.826888 35.939457
36.054702 36.171339 36.290075 36.409607 36.530637 36.651853 36.773956 36.895638
37.017593 37.138532 37.259142 37.378163 37.496275 37.612257 37.726780 37.838674
37.948597 38.055436 38.159836 38.260752 38.358806 38.453027 38.544014 38.630874
38.714175 38.793109 38.868204 38.938741 39.005204 39.066962 39.124451 39.177128
39.225375 39.268738 39.307539 39.341415 39.370621 39.394885 39.414393 39.428962
39.438705 39.443532 39.443479 39.438546 39.428694 39.414014 39.394392 39.370008
39.340677 39.306669 39.267728 39.224215 39.175809 39.122961 39.065288 39.003331
38.936654 38.865888 38.790544 38.711342 38.627753 38.540581 38.449259 38.354678
38.256237 38.154907 38.050062 37.942746 37.832314 37.719877 37.604775 37.488176
37.369409 37.249694 37.128348 37.006631 36.883854 36.761306 36.638292 36.516118
36.394084 36.273502 36.153668 36.035885 35.919448 35.805641 35.693754 35.585043
35.478795 35.376226 35.276621 35.181145 35.089085 35.001546 34.917817 34.838936
34.764196 34.694565 34.629337 34.569408 34.514079 34.464164 34.418974 34.379245
34.344297 34.314785 34.290043 34.270644 34.255939 34.246421 34.241457 34.241463
34.245827 34.254886 34.268054 34.285594 34.306942 34.332291 34.361104 34.393507
34.428993 34.467620 34.508913 34.552871 34.599048 34.647387 34.697477 34.749206
34.802198 34.856291 34.911148 34.966557 35.022222
35.400000 35.340711 35.281717 35.223364 35.165894 35.109699 35.054965 35.002129
34.951315 34.903004 34.857255 34.814589 34.774996 34.739034 34.706623 34.678354
34.654071 34.634399 34.619101 34.608832 34.603274 34.603106 34.607925 34.618435
34.634144 34.655778 34.682752 34.715813 34.754283 34.798924 34.848965 34.905182
34.966709 35.034335 35.107101 35.185804 35.269396 35.358679 35.452522 35.551728
35.655089 35.763408 35.875405 35.991883 36.111499 36.235053 36.361152 36.490591
36.621936 36.755979 36.891256 37.028556 37.166401 37.305573 37.444593 37.584239
37.723044 37.861780 37.999006 38.135487 38.269822 38.402766 38.532969 38.661176
38.786100 38.908469 39.027069 39.142609 39.253955 39.361790 39.465069 39.564444
39.658961 39.749236 39.834411 39.915056 39.990412 40.061000 40.126160 40.186352
40.241021 40.290559 40.334514 40.373207 40.406285 40.433996 40.456087 40.472724
40.483757 40.489269 40.489210 40.483578 40.472423 40.455661 40.433442 40.405597
40.372378 40.333536 40.289424 40.239717 40.184870 40.124485 40.059118 39.988307
39.912710 39.831806 39.746352 39.655776 39.560934 39.461209 39.357554 39.249314
39.137533 39.021526 38.902426 38.779521 38.654025 38.525206 38.394351 38.260714
38.125643 37.988380 37.850326 37.710715 37.570986 37.430365 37.290320 37.150071
37.011097 36.872615 36.736102 36.600771 36.468086 36.337253 36.209709 36.084659
35.963499 35.845429 35.731794 35.621794 35.516712 35.415747 35.320112 35.229006
35.143566 35.062995 34.988345 34.918825 34.855400 34.797286 34.745360 34.698848
34.658534 34.623658 34.594912 34.571554 34.554183 34.542075 34.535740 34.534476
34.538705 34.547751 34.561948 34.580647 34.604103 34.631693 34.663596 34.699219
34.738665 34.781378 34.827388 34.876173 34.927700 34.981481 35.037421 35.095072
35.154279 35.214638 35.275935 35.337810 35.400000
35.777778 35.712484 35.647551 35.583278 35.520082 35.458201 35.398102 35.339960
35.284287 35.231191 35.181229 35.134434 35.091409 35.052105 35.017167 34.986465
34.960679 34.939594 34.923923 34.913361 34.908654 34.909400 34.916375 34.929081
34.948316 34.973482 35.005402 35.043373 35.088237 35.139188 35.197082 35.261010
35.331841 35.408561 35.492049 35.581191 35.676871 35.777877 35.885099 35.997232
36.115167 36.237515 36.365165 36.496655 36.632870 36.772282 36.915773 37.061764
37.211130 37.362255 37.516008 37.670747 37.827338 37.984129 38.141980 38.299247
38.456782 38.612963 38.768638 38.922219 39.074547 39.224086 39.371666 39.515815
39.657349 39.794874 39.929186 40.058977 40.185020 40.306102 40.422965 40.534497
40.641404 40.742678 40.838981 40.929416 41.014588 41.093713 41.167337 41.234787
41.296539 41.352034 41.401672 41.445006 41.482355 41.513384 41.538323 41.556951
41.569406 41.575577 41.575511 41.569207 41.556617 41.537851 41.512768 41.481591
41.444086 41.400587 41.350774 41.295093 41.233141 41.165478 41.091624 41.012251
40.926812 40.836090 40.739477 40.637868 40.530600 40.418680 40.301398 40.179866
40.053340 39.923030 39.788163 39.650043 39.507873 39.363044 39.214741 39.064432
38.911285 38.756835 38.600241 38.443087 38.284525 38.126176 37.967186 37.809198
37.651352 37.495300 37.340175 37.187620 37.036763 36.889225 36.744128 36.603055
36.465124 36.331866 36.202396 36.078181 35.958335 35.844249 35.735036 35.632007
35.534275 35.443060 35.357480 35.278658 35.205720 35.139690 35.079702 35.026678
34.979766 34.939786 34.905900 34.878826 34.857747 34.843276 34.834621 34.832295
34.835531 34.844747 34.859202 34.879223 34.904098 34.934066 34.968449 35.007399
35.050275 35.097148 35.147415 35.201071 35.257552 35.316783 35.378241 35.441784
35.506934 35.573484 35.641005 35.709229 35.777778
36.155556 36.084456 36.013725 35.943791 35.874959 35.807715 35.742292 35.679234
35.618699 35.561282 35.507061 35.456681 35.410137 35.368119 35.330533 35.298111
35.270668 35.248974 35.232746 35.222792 35.218724 35.221385 35.230281 35.246283
35.268789 35.298694 35.335284 35.379478 35.430445 35.489123 35.554566 35.627728
35.707547 35.794986 35.888872 35.990175 36.097612 36.212157 36.332421 36.459380
36.591549 36.729901 36.872861 37.021401 37.173868 37.331227 37.491760 37.656428
37.823462 37.993815 38.165683 38.340014 38.514984 38.691534 38.867841 39.044840
39.220721 39.396413 39.570143 39.742829 39.912747 40.080809 40.245354 40.407281
40.565011 40.719423 40.869030 41.014691 41.155018 41.290842 41.420884 41.545939
41.664843 41.778348 41.885408 41.986722 42.081367 42.169978 42.251757 42.327267
42.395835 42.457943 42.513043 42.561530 42.602978 42.637691 42.665363 42.686200
42.700018 42.706922 42.706849 42.699800 42.685833 42.664844 42.637015 42.602139
42.560520 42.511851 42.456559 42.394246 42.325460 42.249714 42.167683 42.078800
41.983862 41.882232 41.774830 41.660957 41.541656 41.416174 41.285672 41.149353
41.008495 40.862264 40.712045 40.556978 40.398549 40.235875 40.070534 39.901625
39.730806 39.557165 39.382424 39.205662 39.028651 38.850462 38.672902 38.495036
38.318686 38.142911 37.969534 37.797607 37.628935 37.462564 37.300266 37.141080
36.986726 36.836241 36.691281 36.550876 36.416606 36.287499 36.165047 36.048278
35.938588 35.835004 35.738821 35.649071 35.566939 35.491466 35.423725 35.362769
35.309556 35.263156 35.224412 35.192413 35.167889 35.149950 35.139218 35.134827
35.137290 35.145772 35.160681 35.181213 35.207676 35.239302 35.276302 35.317947
35.364355 35.414838 35.469430 35.527483 35.588949 35.653228 35.720193 35.789293
35.860330 35.932802 36.006442 36.080803 36.155556
36.533333 36.456613 36.380333 36.304864 36.230713 36.158176 36.087821 36.019866
35.954937 35.893169 35.835242 35.781202 35.731781 35.686931 35.647433 35.613137
35.584870 35.562379 35.546531 35.536964 35.534581 35.538907 35.550880 35.569905
35.596950 35.631298 35.673944 35.724045 35.782617 35.848692 35.923304 36.005356
36.095895 36.193700 36.299827 36.412931 36.534072 36.661788 36.797140 36.938555
37.087092 37.241073 37.401554 37.566767 37.737760 37.912685 38.092584 38.275545
38.462601 38.651792 38.844146 39.037670 39.233386 39.429290 39.626397 39.822712
40.019241 40.214019 40.408044 40.599398 40.789071 40.975208 41.158789 41.338041
41.513926 41.684768 41.851511 42.012582 42.168902 42.319014 42.463803 42.601939
42.734263 42.859574 42.978663 43.090459 43.195691 43.293424 43.384315 43.467564
43.543744 43.612193 43.673393 43.726813 43.772840 43.811075 43.841799 43.864747
43.880089 43.887692 43.887613 43.879850 43.864347 43.841234 43.810339 43.771926
43.725713 43.672095 43.610686 43.542014 43.465594 43.382089 43.290923 43.192893
43.087342 42.975201 42.855741 42.730029 42.597272 42.458670 42.313379 42.162728
42.005829 41.844135 41.676726 41.505170 41.328521 41.148455 40.964006 40.776944
40.586289 40.393893 40.198764 40.002819 39.805058 39.607444 39.408971 39.211631
39.014411 38.819310 38.625311 38.434403 38.245559 38.060743 37.878918 37.702001
37.528950 37.361617 37.198954 37.042735 36.891906 36.748152 36.610414 36.480274
36.356675 36.241087 36.132456 36.032135 35.939074 35.854506 35.777392 35.708839
35.647820 35.595321 35.550330 35.513708 35.484467 35.463343 35.449374 35.443176
35.443818 35.451798 35.466217 35.487464 35.514675 35.548129 35.587005 35.631479
35.680771 35.734962 35.793316 35.855822 35.921793 35.991132 36.063202 36.137824
36.214417 36.292723 36.372220 36.452578 36.533333
36.911111 36.829004 36.747343 36.666646 36.587280 36.509834 36.434592 36.362208
36.292876 36.227313 36.165619 36.108569 36.056164 36.009232 35.967670 35.932354
35.903073 35.880750 35.865054 35.856954 35.855996 35.863186 35.877947 35.901317
35.932586 35.972825 36.021189 36.078773 36.144595 36.219770 36.303178 36.395950
36.496827 36.606950 36.724926 36.851901 36.986348 37.129417 37.279455 37.437609
37.602107 37.774092 37.951686 38.136023 38.325131 38.520136 38.718986 38.922798
39.129457 39.340071 39.552485 39.767793 39.983821 40.201654 40.419116 40.637286
40.854007 41.070352 41.284206 41.496633 41.705581 41.912104 42.114230 42.313002
42.506546 42.695888 42.879264 43.057677 43.229488 43.395670 43.554714 43.707555
43.852822 43.991400 44.122063 44.245634 44.361033 44.469011 44.568634 44.660572
44.744036 44.819602 44.886628 44.945586 44.995979 45.038169 45.071801 45.097119
45.113911 45.122300 45.122215 45.113654 45.096687 45.071190 45.037373 44.994991
44.944396 44.885224 44.817972 44.742164 44.658442 44.566227 44.466306 44.358007
44.242262 44.118318 43.987252 43.848240 43.702505 43.549160 43.389572 43.222806
43.050368 42.871280 42.687182 42.497067 42.302697 42.103042 41.899975 41.692451
41.482440 41.268884 41.053835 40.836225 40.618169 40.398592 40.179650 39.960262
39.742604 39.525589 39.311392 39.098919 38.890324 38.684501 38.483566 38.286404
38.095067 37.908433 37.728478 37.554069 37.387090 37.226403 37.073784 36.928090
36.790984 36.661320 36.540635 36.427789 36.324186 36.228693 36.142580 36.064724
35.996262 35.936084 35.885191 35.842495 35.808859 35.783223 35.766317 35.757109
35.756201 35.762594 35.776766 35.797756 35.825921 35.860343 35.901265 35.947811
36.000117 36.057355 36.119559 36.185951 36.256467 36.330386 36.407551 36.487296
36.569381 36.653201 36.738433 36.824536 36.911111
37.288889 37.201611 37.114859 37.029077 36.944870 36.862593 36.782923 36.706125
36.632943 36.563543 36.498734 36.438579 36.383946 36.334787 36.292028 36.255504
36.226192 36.203805 36.189368 36.182465 36.184166 36.193918 36.212831 36.240213
36.277208 36.322980 36.378700 36.443387 36.518235 36.602112 36.696231 36.799310
36.912575 37.034594 37.166600 37.307016 37.457076 37.615063 37.782209 37.956662
38.139651 38.329199 38.526526 38.729545 38.939465 39.154105 39.374661 39.598876
39.827932 40.059516 40.294798 40.531431 40.770574 41.009866 41.250458 41.490002
41.729639 41.967055 42.203387 42.436378 42.667154 42.893539 43.116650 43.334409
43.547920 43.755218 43.957389 44.152599 44.341906 44.523615 44.698751 44.865765
45.025637 45.176972 45.320692 45.455558 45.582422 45.700205 45.809674 45.909910
46.001585 46.083935 46.157528 46.221757 46.277072 46.323021 46.359931 46.387500
46.405927 46.415062 46.414970 46.405650 46.387035 46.359274 46.322166 46.276010
46.220478 46.156020 46.082183 45.999573 45.907621 45.807087 45.697297 45.579169
45.451933 45.316665 45.172512 45.020709 44.860334 44.692776 44.517056 44.334718
44.144735 43.948800 43.745851 43.537720 43.323320 43.104611 42.880487 42.653024
42.421102 42.186896 41.949277 41.710499 41.469424 41.228366 40.986179 40.745213
40.504314 40.265844 40.028642 39.795056 39.563916 39.337536 39.114735 38.897772
38.685453 38.479962 38.280093 38.087937 37.902278 37.725098 37.555173 37.394364
37.241442 37.098135 36.963215 36.838269 36.722072 36.616069 36.519041 36.432287
36.354601 36.287132 36.228695 36.180291 36.140757 36.110951 36.089738 36.077833
36.074136 36.079225 36.092037 36.113018 36.141147 36.176745 36.218837 36.267622
36.322176 36.382584 36.447974 36.518325 36.592822 36.671340 36.753126 36.837958
36.925148 37.014383 37.105041 37.196727 37.288889
37.666667 37.574487 37.482834 37.392323 37.303389 37.216727 37.132676 37.052006
36.974956 36.902365 36.834363 36.771859 36.714864 36.664351 36.620211 36.583472
36.553898 36.532570 36.519117 36.514671 36.518716 36.532428 36.555145 36.588082
36.630424 36.683418 36.746091 36.819719 36.903169 36.997735 37.102125 37.217647
37.342846 37.479041 37.624616 37.780892 37.946097 38.121552 38.305335 38.498760
38.699766 38.909656 39.126242 39.350813 39.581071 39.818289 40.060075 40.307687
40.558661 40.814239 41.071906 41.332892 41.594656 41.858417 42.121634 42.385517
42.647549 42.908934 43.167208 43.423564 43.675617 43.924552 44.168081 44.407380
44.640276 44.867933 45.088311 45.302553 45.508765 45.708061 45.898705 46.081767
46.255676 46.421450 46.577685 46.725332 46.863158 46.992033 47.110894 47.220515
47.320003 47.410027 47.489858 47.560047 47.620031 47.670231 47.710245 47.740360
47.760335 47.770314 47.770216 47.760039 47.739864 47.709543 47.669316 47.618896
47.558680 47.488246 47.408154 47.317853 47.218067 47.108127 46.988923 46.859679
46.721455 46.573378 46.416679 46.250405 46.075956 45.892313 45.701043 45.501074
45.294137 45.079118 44.857907 44.629358 44.395509 44.155192 43.910579 43.660488
43.407209 43.149550 42.889897 42.627054 42.363481 42.097976 41.833051 41.567496
41.303851 41.040896 40.781172 40.523449 40.270244 40.020312 39.776122 39.536416
39.303589 39.076370 38.857062 38.644379 38.440515 38.244170 38.057414 37.878937
37.710670 37.551299 37.402608 37.263280 37.134947 37.016296 36.908800 36.811156
36.724677 36.648076 36.582505 36.526701 36.481656 36.446133 36.420972 36.404967
36.398809 36.401328 36.413071 36.432912 36.461257 36.497027 36.540497 36.590638
36.647600 36.710410 36.779097 36.852747 36.931278 37.013839 37.100240 37.189698
37.281922 37.376201 37.472149 37.569129 37.666667
38.044444 37.947605 37.851384 37.756302 37.663068 37.572102 37.484197 37.399667
37.319382 37.243544 37.173097 37.108125 37.049639 36.997595 36.953071 36.915888
36.887184 36.866638 36.855443 36.853131 36.860941 36.878253 36.906348 36.944445
36.993863 37.053654 37.125169 37.207289 37.301389 37.406177 37.523046 37.650528
37.790028 37.939905 38.101567 38.273202 38.456218 38.648637 38.851859 39.063749
39.285697 39.515424 39.754301 39.999920 40.253636 40.512929 40.779134 41.049639
41.325762 41.604826 41.888128 42.172952 42.460581 42.748284 43.037333 43.325013
43.612586 43.897380 44.180650 44.459796 44.736066 45.006955 45.273706 45.533930
45.788861 46.036249 46.277310 46.509949 46.735358 46.951606 47.159852 47.358338
47.548175 47.727786 47.898219 48.058079 48.208338 48.347782 48.477292 48.595835