<?xml version="1.0"?>
<VTKFile type="ImageData" version="0.1" byte_order="LittleEndian">
  <ImageData WholeExtent="0 180 0 180 0 0" Origin="0.0 0.0 0.0" Spacing="0.05 0.05 1">
    <Piece Extent="0 180 0 180 0 0">
      <PointData Scalars="Temperature">
        <DataArray type="Float32" Name="Temperature" format="ascii">
32.000000 32.000000 32.000000 32.000000 32.000000 32.000000 32.000000 32.000000 32.000000 32.000000 32.000000 32.000000 32.000000 32.000000 32.000000 32.000000 32.000000 32.000000 32.000000 32.000000 32.000000 32.000000 32.000000 32.000000 32.000000 32.000000 32.000000 32.000000 32.000000 32.000000 32.000000 32.000000 32.000000 32.000000 32.000000 32.000000 32.000000 32.000000 32.000000 32.000000 32.000000 32.000000 32.000000 32.000000 32.000000 32.000000 32.000000 32.000000 32.000000 32.000000 32.000000 32.000000 32.000000 32.000000 32.000000 32.000000 32.000000 32.000000 32.000000 32.000000 32.000000 32.000000 32.000000 32.000000 32.000000 32.000000 32.000000 32.000000 32.000000 32.000000 32.000000 32.000000 32.000000 32.000000 32.000000 32.000000 32.000000 32.000000 32.000000 32.000000 32.000000 32.000000 32.000000 32.000000 32.000000 32.000000 32.000000 32.000000 32.000000 32.000000 32.000000 32.000000 32.000000 32.000000 32.000000 32.000000 32.000000 32.000000 32.000000 32.000000 32.000000 32.000000 32.000000 32.000000 32.000000 32.000000 32.000000 32.000000 32.000000 32.000000 32.000000 32.000000 32.000000 32.000000 32.000000 32.000000 32.000000 32.000000 32.000000 32.000000 32.000000 32.000000 32.000000 32.000000 32.000000 32.000000 32.000000 32.000000 32.000000 32.000000 32.000000 32.000000 32.000000 32.000000 32.000000 32.000000 32.000000 32.000000 32.000000 32.000000 32.000000 32.000000 32.000000 32.000000 32.000000 32.000000 32.000000 32.000000 32.000000 32.000000 32.000000 32.000000 32.000000 32.000000 32.000000 32.000000 32.000000 32.000000 32.000000 32.000000 32.000000 32.000000 32.000000 32.000000 32.000000 32.000000 32.000000 32.000000 32.000000 32.000000 32.000000 32.000000 32.000000 32.000000 32.000000 32.000000 32.000000 32.000000 32.000000 32.000000 32.000000
32.377778 32.381577 32.385406 32.389300 32.393282 32.397393 32.401651 32.406100 32.410751 32.415654 32.420813 32.426279 32.432052 32.438187 32.444673 32.451569 32.458859 32.466601 32.474773 32.483436 32.492557 32.502200 32.512325 32.522995 32.534163 32.545894 32.558130 32.570937 32.584251 32.598135 32.612518 32.627463 32.642892 32.658865 32.675298 32.692250 32.709629 32.727493 32.745744 32.764438 32.783472 32.802900 32.822612 32.842662 32.862937 32.883487 32.904197 32.925113 32.946120 32.967263 32.988423 33.009644 33.030808 33.051958 33.072976 33.093902 33.114622 33.135175 33.155449 33.175482 33.195166 33.214538 33.233494 33.252072 33.270172 33.287832 33.304956 33.321582 33.337623 33.353112 33.367971 33.382232 33.395823 33.408775 33.421023 33.432596 33.443437 33.453573 33.462954 33.471604 33.479480 33.486604 33.492942 33.498509 33.503280 33.507267 33.510452 33.512843 33.514430 33.515215 33.515196 33.514372 33.512748 33.510318 33.507093 33.503066 33.498255 33.492646 33.486266 33.479098 33.471177 33.462480 33.453052 33.442866 33.431974 33.420347 33.408044 33.395035 33.381385 33.367063 33.352140 33.336585 33.320476 33.303779 33.286581 33.268846 33.250668 33.232010 33.212970 33.193513 33.173742 33.153618 33.133253 33.112605 33.091789 33.070765 33.049648 33.028397 33.007131 32.985806 32.964543 32.943296 32.922185 32.901164 32.880352 32.859699 32.839323 32.819174 32.799364 32.779843 32.760718 32.741937 32.723603 32.705661 32.688211 32.671193 32.654702 32.638678 32.623207 32.608228 32.593822 32.579925 32.566611 32.553816 32.541604 32.529913 32.518799 32.508198 32.498160 32.488622 32.479624 32.471103 32.463095 32.455536 32.448453 32.441786 32.435553 32.429696 32.424227 32.419089 32.414287 32.409767 32.405529 32.401520 32.397733 32.394122 32.390670 32.387337 32.384100 32.380923 32.377778
32.755556 32.763176 32.770861 32.778666 32.786664 32.794898 32.803453 32.812358 32.821706 32.831514 32.841883 32.852816 32.864420 32.876684 32.889721 32.903506 32.918156 32.933631 32.950052 32.967365 32.985692 33.004962 33.025303 33.046627 33.069061 33.092503 33.117081 33.142675 33.169413 33.197160 33.226043 33.255913 33.286892 33.318818 33.351811 33.385693 33.420583 33.456290 33.492929 33.530296 33.568504 33.607338 33.646906 33.686986 33.727680 33.768760 33.810324 33.852137 33.894296 33.936562 33.979025 34.021449 34.063919 34.106199 34.148374 34.190207 34.231782 34.272868 34.313546 34.353591 34.393083 34.431807 34.469838 34.506972 34.543284 34.578580 34.612933 34.646163 34.678340 34.709296 34.739101 34.767602 34.794862 34.820745 34.845311 34.868438 34.890182 34.910436 34.929250 34.946533 34.962330 34.976564 34.989274 35.000397 35.009965 35.017932 35.024319 35.029097 35.032278 35.033847 35.033809 35.032163 35.028905 35.024050 35.017584 35.009538 34.999889 34.988682 34.975888 34.961566 34.945679 34.928303 34.909393 34.889041 34.867194 34.843961 34.819285 34.793288 34.765909 34.737285 34.707353 34.676264 34.643951 34.610579 34.576079 34.540632 34.504164 34.466869 34.428672 34.389778 34.350110 34.309885 34.269023 34.227749 34.185982 34.143953 34.101580 34.059098 34.016423 33.973794 33.931123 33.888649 33.846282 33.804260 33.762490 33.721205 33.680309 33.640031 33.600269 33.561246 33.522857 33.485316 33.448512 33.412650 33.377617 33.343603 33.310494 33.278467 33.247403 33.217467 33.188538 33.160766 33.134026 33.108456 33.083928 33.060565 33.038239 33.017056 32.996888 32.977827 32.959746 32.942720 32.926624 32.911519 32.897281 32.883956 32.871425 32.859718 32.848721 32.838448 32.828792 32.819753 32.811229 32.803207 32.795593 32.788361 32.781424 32.774744 32.768241 32.761869 32.755556
33.133333 33.144825 33.156405 33.168181 33.180223 33.192653 33.205524 33.218969 33.233025 33.247835 33.263417 33.279925 33.297355 33.315871 33.335447 33.356255 33.378248 33.401604 33.426251 33.452375 33.479880 33.508954 33.539478 33.571644 33.605310 33.640665 33.677545 33.716141 33.756263 33.798102 33.841443 33.886475 33.932963 33.981091 34.030601 34.081674 34.134032 34.187851 34.242835 34.299152 34.356491 34.415014 34.474396 34.534793 34.595866 34.657765 34.720144 34.783145 34.846416 34.910094 34.973823 35.037735 35.101472 35.165164 35.228455 35.291470 35.353859 35.415745 35.476785 35.537099 35.596357 35.654675 35.711737 35.767658 35.822137 35.875286 35.926823 35.976857 36.025125 36.071733 36.116441 36.159347 36.200234 36.239197 36.276041 36.310853 36.343461 36.373946 36.402159 36.428172 36.451859 36.473282 36.492338 36.509079 36.523424 36.535414 36.544990 36.552180 36.556949 36.559311 36.559253 36.556777 36.551893 36.544587 36.534893 36.522784 36.508317 36.491452 36.472268 36.450714 36.426892 36.400740 36.372383 36.341750 36.308988 36.274016 36.237008 36.197873 36.156808 36.113718 36.068820 36.022014 35.973540 35.923294 35.871538 35.818162 35.763448 35.707286 35.649975 35.591401 35.531880 35.471296 35.409980 35.347812 35.285135 35.221826 35.158237 35.094243 35.030199 34.965978 34.901939 34.837948 34.774365 34.711052 34.648363 34.586156 34.524781 34.464087 34.404414 34.345609 34.287997 34.231419 34.176189 34.122138 34.069564 34.018295 33.968610 33.920331 33.873717 33.828586 33.785176 33.743301 33.703178 33.664617 33.627813 33.592575 33.559074 33.527119 33.496857 33.468097 33.440964 33.415269 33.391113 33.368310 33.346940 33.326820 33.308008 33.290326 33.273810 33.258292 33.243784 33.230127 33.217313 33.205192 33.193738 33.182811 33.172366 33.162276 33.152477 33.142856 33.133333
33.511111 33.526539 33.542097 33.557894 33.574081 33.590741 33.608045 33.626053 33.644951 33.664774 33.685722 33.707803 33.731231 33.755987 33.782294 33.810104 33.839652 33.870857 33.903963 33.938859 33.975794 34.014626 34.055608 34.098565 34.143754 34.190968 34.240463 34.292002 34.345839 34.401707 34.459856 34.519989 34.582351 34.646617 34.713026 34.781226 34.851449 34.923315 34.997052 35.072256 35.149146 35.227297 35.306920 35.387572 35.469456 35.552115 35.635744 35.719874 35.804692 35.889725 35.975150 36.060492 36.145923 36.230968 36.315793 36.399930 36.483540 36.566163 36.647958 36.728477 36.807876 36.885724 36.962174 37.036815 37.109796 37.180731 37.249764 37.316534 37.381182 37.443374 37.503246 37.560492 37.615243 37.667223 37.716554 37.762992 37.806648 37.847310 37.885079 37.919773 37.951480 37.980050 38.005557 38.027882 38.047083 38.063070 38.075887 38.085474 38.091857 38.095006 38.094930 38.091629 38.085092 38.075350 38.062376 38.046230 38.026866 38.004376 37.978699 37.949955 37.918067 37.883188 37.845228 37.804368 37.760507 37.713857 37.664306 37.612098 37.557111 37.499618 37.439492 37.377036 37.312115 37.245062 37.175736 37.104499 37.031205 36.956242 36.879461 36.801271 36.721521 36.640643 36.558480 36.475481 36.391486 36.306959 36.221736 36.136288 36.050449 35.964696 35.878856 35.793407 35.708172 35.623627 35.539585 35.456517 35.374229 35.293180 35.213170 35.134644 35.057391 34.981840 34.907774 34.835598 34.765089 34.696629 34.629987 34.565520 34.502989 34.442727 34.384486 34.328572 34.274733 34.223244 34.173850 34.126796 34.081826 34.039153 33.998521 33.960112 33.923672 33.889352 33.856901 33.826439 33.797721 33.770835 33.745545 33.721909 33.699699 33.678945 33.659428 33.641152 33.623909 33.607676 33.592261 33.577614 33.563557 33.550018 33.536836 33.523914 33.511111
33.888889 33.908352 33.927965 33.947904 33.968291 33.989326 34.011102 34.033840 34.057601 34.082627 34.108946 34.136818 34.166234 34.197472 34.230487 34.265567 34.302634 34.341985 34.383503 34.427494 34.473804 34.522743 34.574117 34.628242 34.684883 34.744358 34.806392 34.871303 34.938775 35.009125 35.081999 35.157708 35.235861 35.316763 35.399987 35.485831 35.573834 35.664284 35.756692 35.851333 35.947691 36.046033 36.145816 36.247296 36.349912 36.453909 36.558709 36.664548 36.770837 36.877801 36.984847 37.092191 37.199238 37.306198 37.412479 37.518286 37.623037 37.726929 37.829396 37.930632 38.030087 38.127952 38.223703 38.317524 38.408920 38.498071 38.584510 38.668416 38.749354 38.827496 38.902444 38.974363 39.042891 39.108185 39.169921 39.228246 39.282874 39.333939 39.381194 39.424759 39.464427 39.500299 39.532207 39.560236 39.584253 39.604325 39.620356 39.632392 39.640376 39.644330 39.644235 39.640090 39.631915 39.619686 39.603459 39.583188 39.558968 39.530733 39.498613 39.462522 39.422630 39.378834 39.331339 39.280027 39.225143 39.166554 39.104542 39.038963 38.970139 38.897914 38.822648 38.744176 38.662897 38.578638 38.491833 38.402304 38.310518 38.216294 38.120129 38.021837 37.921944 37.820259 37.717332 37.612969 37.507739 37.401443 37.294665 37.187201 37.079645 36.971786 36.864223 36.756738 36.649929 36.543571 36.438255 36.333747 36.230627 36.128651 36.028385 35.929574 35.832764 35.737688 35.644871 35.554035 35.465675 35.379506 35.295993 35.214840 35.136479 35.060608 34.987623 34.917214 34.849743 34.784895 34.722992 34.663717 34.607354 34.553585 34.502653 34.454243 34.408559 34.365287 34.324596 34.286174 34.250152 34.216228 34.184493 34.154656 34.126771 34.100560 34.076041 34.052948 34.031268 34.010751 33.991350 33.972833 33.955123 33.938008 33.921381 33.905053 33.888889
34.266667 34.290274 34.314077 34.338242 34.362994 34.388463 34.414903 34.442408 34.471255 34.501501 34.533446 34.567103 34.602795 34.640492 34.680534 34.722847 34.767785 34.815229 34.865544 34.918567 34.974669 35.033640 35.095859 35.161068 35.229647 35.301291 35.376382 35.454566 35.536223 35.620954 35.709132 35.800314 35.894865 35.992298 36.092971 36.196354 36.302795 36.411725 36.523481 36.637457 36.753980 36.872411 36.993063 37.115273 37.239339 37.364577 37.491272 37.618724 37.747206 37.876008 38.005392 38.134643 38.264015 38.392794 38.521226 38.648605 38.775171 38.900233 39.024023 39.145871 39.266006 39.383783 39.499425 39.612318 39.722683 39.829939 39.934302 40.035232 40.132937 40.226918 40.317377 40.403858 40.486555 40.565058 40.639547 40.709660 40.775563 40.836939 40.893940 40.946296 40.994139 41.037244 41.075724 41.109401 41.138363 41.162477 41.181809 41.196268 41.205895 41.210646 41.210532 41.205553 41.195697 41.181006 41.161440 41.137087 41.107882 41.073958 41.035223 40.991856 40.943745 40.891112 40.833824 40.772152 40.705942 40.635512 40.560693 40.481849 40.398797 40.311947 40.221107 40.126731 40.028617 39.927263 39.822461 39.714751 39.603919 39.490542 39.374403 39.256115 39.135455 39.013067 38.888725 38.763099 38.635957 38.507992 38.378964 38.249581 38.119597 37.989730 37.859724 37.730300 37.601193 37.473119 37.345804 37.219954 37.095283 36.972481 36.851249 36.732256 36.615191 36.500696 36.388448 36.279057 36.172189 36.068418 35.967398 35.869667 35.774867 35.683494 35.595183 35.510387 35.428732 35.350628 35.275695 35.204297 35.136052 35.071277 35.009590 34.951261 34.895910 34.843761 34.794438 34.748119 34.704437 34.663523 34.625019 34.589014 34.555164 34.523512 34.493730 34.465821 34.439474 34.414652 34.391064 34.368636 34.347101 34.326346 34.306131 34.286309 34.266667
34.644444 34.672341 34.700450 34.729019 34.758221 34.788336 34.819498 34.852018 34.885983 34.921733 34.959309 34.999076 35.041026 35.085546 35.132578 35.182525 35.235279 35.291258 35.350299 35.412834 35.478644 35.548169 35.621136 35.697989 35.778400 35.862814 35.950848 36.042945 36.138668 36.238455 36.341815 36.449179 36.560004 36.674712 36.792708 36.914404 37.039158 37.167368 37.298349 37.432485 37.569050 37.708413 37.849816 37.993611 38.139012 38.286355 38.434831 38.584763 38.735326 38.886830 39.038439 39.190454 39.342037 39.493478 39.643945 39.793718 39.941982 40.089008 40.234001 40.377226 40.517916 40.656331 40.791736 40.924388 41.053591 41.179595 41.301749 41.420297 41.534635 41.645000 41.750838 41.852376 41.949113 42.041266 42.128385 42.210673 42.287736 42.359759 42.426402 42.487830 42.543757 42.594325 42.639302 42.678805 42.712654 42.740938 42.763529 42.780489 42.791739 42.797311 42.797178 42.791341 42.779823 42.762594 42.739730 42.711168 42.677037 42.637245 42.591972 42.541099 42.484859 42.423108 42.356132 42.283763 42.206343 42.123684 42.036181 41.943630 41.846480 41.744513 41.638231 41.527405 41.412590 41.293547 41.170882 41.044349 40.914600 40.781385 40.645400 40.506388 40.365086 40.221232 40.075596 39.927912 39.778977 39.628519 39.477357 39.325212 39.172916 39.020182 38.867848 38.715617 38.564327 38.413669 38.264472 38.116414 37.970310 37.825823 37.683746 37.543727 37.406531 37.271791 37.140239 37.011492 36.886243 36.764095 36.645698 36.530642 36.419532 36.311945 36.208435 36.108573 36.012859 35.920856 35.833014 35.748889 35.668876 35.592531 35.520194 35.451420 35.386497 35.324984 35.267112 35.212449 35.161173 35.112862 35.067640 35.025099 34.985314 34.947892 34.912858 34.879839 34.848812 34.819428 34.791618 34.765057 34.739634 34.715052 34.691157 34.667686 34.644444
35.022222 35.054560 35.087161 35.120249 35.154127 35.188972 35.225122 35.262707 35.302099 35.343374 35.386935 35.432804 35.481412 35.532722 35.587187 35.644714 35.705773 35.770212 35.838517 35.910471 35.986573 36.066545 36.150890 36.239268 36.332186 36.429241 36.530939 36.636813 36.747366 36.862068 36.981416 37.104820 37.232765 37.364602 37.500805 37.640668 37.784652 37.931999 38.083151 38.237304 38.394882 38.555039 38.718183 38.883428 39.051166 39.220481 39.391749 39.564031 39.737685 39.911761 40.086601 40.261249 40.436035 40.610005 40.783478 40.955511 41.126416 41.295268 41.462372 41.626832 41.788946 41.947853 42.103845 42.256106 42.404920 42.549519 42.690183 42.826194 42.957827 43.084421 43.206240 43.322682 43.434002 43.539656 43.639886 43.734211 43.822853 43.905394 43.982036 44.052422 44.116730 44.174663 44.226373 44.271624 44.310535 44.342931 44.368900 44.388323 44.401256 44.407637 44.407486 44.400802 44.387565 44.367833 44.341554 44.308841 44.269607 44.224027 44.171980 44.113699 44.049034 43.978280 43.901257 43.818322 43.729272 43.634524 43.533856 43.427747 43.315956 43.199024 43.076697 42.949578 42.817399 42.680823 42.539575 42.394372 42.244934 42.092031 41.935376 41.775788 41.612974 41.447796 41.279957 41.110352 40.938681 40.765867 40.591600 40.416826 40.241225 40.065756 39.890088 39.715182 39.540697 39.367587 39.195495 39.025365 38.856823 38.690789 38.526876 38.365972 38.207673 38.052833 37.901028 37.753072 37.608522 37.468147 37.331487 37.199258 37.070988 36.947336 36.827819 36.713037 36.602496 36.496739 36.395262 36.298547 36.206086 36.118299 36.034677 35.955577 35.880493 35.809719 35.742756 35.679837 35.620472 35.564832 35.512441 35.463413 35.417287 35.374120 35.333472 35.295343 35.259319 35.225345 35.193036 35.162285 35.132737 35.104238 35.076466 35.049223 35.022222
35.400000 35.436969 35.474214 35.512056 35.550721 35.590575 35.631788 35.674765 35.719622 35.766799 35.816351 35.868750 35.923990 35.982569 36.044417 36.110054 36.179345 36.252828 36.330299 36.412311 36.498589 36.589698 36.685291 36.785938 36.891222 37.001713 37.116923 37.237420 37.362644 37.493157 37.628330 37.768715 37.913614 38.063567 38.217811 38.376869 38.539919 38.707464 38.878626 39.053890 39.232324 39.414394 39.599123 39.786956 39.976880 40.169319 40.363229 40.559015 40.755615 40.953414 41.151339 41.349760 41.547602 41.745221 41.941550 42.136936 42.330329 42.522065 42.711123 42.897832 43.081207 43.261571 43.437982 43.610761 43.779014 43.943057 44.102055 44.256317 44.405068 44.548610 44.686234 44.818231 44.943960 45.063698 45.176873 45.283745 45.383812 45.477312 45.563812 45.643527 45.716092 45.781693 45.840033 45.891264 45.935159 45.971834 46.001125 46.023113 46.037700 46.044925 46.044755 46.037190 46.022262 45.999929 45.970288 45.933258 45.889002 45.837400 45.778681 45.712691 45.639725 45.559596 45.472668 45.378725 45.278201 45.170854 45.057186 44.936938 44.810679 44.678132 44.539937 44.395804 44.246440 44.091544 43.931889 43.767167 43.598213 43.424711 43.247555 43.066424 42.882263 42.694746 42.504862 42.312280 42.118025 41.921761 41.724540 41.526015 41.327259 41.127913 40.929059 40.730326 40.532793 40.336075 40.141240 39.947885 39.757059 39.568339 39.382746 39.199837 39.020596 38.844560 38.672668 38.504437 38.340757 38.181124 38.026372 37.875980 37.730721 37.590059 37.454704 37.324104 37.198903 37.078540 36.963590 36.853484 36.748728 36.648750 36.553984 36.463861 36.378744 36.298066 36.222123 36.150357 36.082993 36.019486 35.959995 35.903992 35.851570 35.802221 35.755975 35.712350 35.671313 35.632412 35.595555 35.560323 35.526568 35.493906 35.462138 35.430920 35.400000
35.777778 35.819569 35.861694 35.904435 35.948175 35.993138 36.039754 36.088185 36.138901 36.192003 36.247996 36.306913 36.369292 36.435096 36.504892 36.578567 36.656712 36.739142 36.826462 36.918412 37.015610 37.117717 37.225362 37.338123 37.456634 37.580395 37.710038 37.844982 37.985854 38.131996 38.284025 38.441206 38.604142 38.772024 38.945439 39.123507 39.306795 39.494358 39.686741 39.882937 40.083470 40.287278 40.494862 40.705114 40.918510 41.133906 41.351754 41.570883 41.791723 42.013086 42.235383 42.457416 42.679584 42.900690 43.121119 43.339692 43.556779 43.771228 43.983403 44.192184 44.397931 44.599569 44.797451 44.990558 45.179237 45.362529 45.540778 45.713091 45.879803 46.040093 46.194289 46.341644 46.482471 46.616101 46.742831 46.862068 46.974090 47.078380 47.175192 47.264085 47.345283 47.418422 47.483690 47.540799 47.589900 47.630777 47.663540 47.688045 47.704360 47.712413 47.712225 47.703796 47.687102 47.662215 47.629065 47.587794 47.538293 47.480774 47.415085 47.341514 47.259872 47.170520 47.073234 46.968453 46.855923 46.736159 46.608883 46.474686 46.333271 46.185306 46.030477 45.869530 45.702138 45.529121 45.350143 45.166097 44.976640 44.782730 44.584021 44.381532 44.174912 43.965233 43.752141 43.536753 43.318708 43.099161 42.877740 42.655629 42.432445 42.209386 41.986057 41.763659 41.541781 41.321620 41.102744 40.886332 40.671934 40.460700 40.252158 40.047421 39.845992 39.648942 39.455750 39.267431 39.083444 38.904743 38.730766 38.562404 38.399071 38.241591 38.089362 37.943134 37.802291 37.667508 37.538159 37.414840 37.296920 37.184918 37.078199 36.977205 36.881304 36.790858 36.705243 36.624745 36.548749 36.477468 36.410303 36.347390 36.288155 36.232660 36.180355 36.131236 36.084782 36.040920 35.999165 35.959380 35.921118 35.884182 35.848166 35.812818 35.777778
36.155556 36.202403 36.249592 36.297521 36.346470 36.396889 36.448994 36.503283 36.559903 36.619395 36.681832 36.747795 36.817281 36.890901 36.968578 37.050948 37.137851 37.229949 37.326997 37.429672 37.537646 37.651606 37.771138 37.896935 38.028494 38.166511 38.310394 38.460836 38.617157 38.780039 38.948720 39.123868 39.304634 39.491672 39.684052 39.882406 40.085730 40.294631 40.508036 40.726526 40.948964 41.175904 41.406155 41.640243 41.876929 42.116714 42.358323 42.602232 42.847139 43.093499 43.339994 43.587060 43.833379 44.079367 44.323718 44.566837 44.807437 45.045914 45.281015 45.513130 45.741051 45.965161 46.184309 46.398873 46.607765 46.811360 47.008641 47.199977 47.384429 47.562357 47.732904 47.896418 48.052126 48.200363 48.340438 48.472669 48.596449 48.712071 48.819015 48.917541 49.007214 49.088261 49.160326 49.223599 49.277804 49.323086 49.359251 49.386396 49.404404 49.413325 49.413119 49.403785 49.385362 49.357798 49.321209 49.275496 49.220851 49.157129 49.084602 49.003082 48.912921 48.813891 48.706427 48.590267 48.465928 48.333120 48.192444 48.043585 47.887231 47.723047 47.551805 47.373156 47.187956 46.995846 46.797764 46.593341 46.383593 46.168147 45.948090 45.723045 45.494163 45.261062 45.024951 44.785443 44.543790 44.299599 44.054159 43.807066 43.559630 43.311437 43.063807 42.816309 42.570264 42.325219 42.082482 41.841580 41.603795 41.368628 41.137327 40.909366 40.685948 40.466520 40.252230 40.042499 39.838413 39.639366 39.446375 39.258812 39.077619 38.902146 38.733257 38.570284 38.414009 38.263750 38.120203 37.982679 37.851788 37.726833 37.608341 37.495613 37.389090 37.288078 37.192932 37.102970 37.018461 36.938737 36.863987 36.793562 36.727571 36.665391 36.607051 36.551961 36.500074 36.450835 36.404125 36.359429 36.316560 36.275047 36.234639 36.194912 36.155556
36.533333 36.585464 36.638002 36.691289 36.745793 36.801786 36.859790 36.920007 36.983005 37.048910 37.118334 37.191323 37.268527 37.349907 37.436146 37.527119 37.623535 37.725178 37.832780 37.946031 38.065679 38.191320 38.323710 38.462352 38.608003 38.760071 38.919310 39.085033 39.257987 39.437388 39.623970 39.816859 40.016769 40.222736 40.435453 40.653870 40.878655 41.108676 41.344575 41.585146 41.831001 42.080868 42.335328 42.593053 42.854594 43.118576 43.385523 43.654024 43.924575 44.195746 44.468008 44.739921 45.011937 45.282620 45.552406 45.819878 46.085459 46.347764 46.607206 46.862446 47.113890 47.360255 47.601943 47.837737 48.068037 48.291699 48.509121 48.719240 48.922448 49.117770 49.305589 49.485021 49.656437 49.819045 49.973197 50.118195 50.254370 50.381114 50.498730 50.606702 50.705297 50.794091 50.873309 50.942615 51.002190 51.051782 51.091524 51.121250 51.141040 51.150809 51.150585 51.140367 51.120126 51.089945 51.049741 50.999680 50.939628 50.869833 50.790114 50.700805 50.601678 50.493159 50.374977 50.247647 50.110865 49.965237 49.810432 49.647147 49.475028 49.294866 49.106289 48.910181 48.706159 48.495197 48.276902 48.052337 47.821105 47.584349 47.341669 47.094286 46.841793 46.585480 46.324936 46.061507 45.794778 45.526138 45.255163 44.983277 44.710043 44.436902 44.163403 43.890992 43.619199 43.349462 43.081286 42.816089 42.553349 42.294452 42.038847 41.787872 41.540949 41.299361 41.062499 40.831580 40.605966 40.386802 40.173422 39.966892 39.766521 39.573290 39.386485 39.207000 39.034102 38.868594 38.709730 38.558218 38.413304 38.275603 38.144356 38.020084 37.902030 37.790622 37.685109 37.585827 37.492039 37.403989 37.320960 37.243107 37.169736 37.100918 37.035988 36.974934 36.917127 36.862473 36.810386 36.760696 36.712861 36.666638 36.621538 36.577248 36.533333
36.911111 36.968800 37.026899 37.085885 37.146098 37.208073 37.272075 37.338697 37.408120 37.480989 37.557399 37.638039 37.722916 37.812755 37.907473 38.007826 38.113634 38.225679 38.343682 38.468445 38.599589 38.737926 38.882975 39.035554 39.195080 39.362369 39.536734 39.718986 39.908333 40.105574 40.309814 40.521835 40.740644 40.966998 41.199809 41.439809 41.685816 41.938533 42.196694 42.460969 42.730017 43.004472 43.282926 43.565980 43.852168 44.142058 44.434141 44.728953 45.024952 45.322648 45.620481 45.918937 46.216455 46.513499 46.808520 47.101969 47.392324 47.680025 47.963592 48.243459 48.518200 48.788244 49.052235 49.310600 49.562058 49.807036 50.044340 50.274393 50.496093 50.709858 50.914685 51.110980 51.297841 51.475659 51.643634 51.802136 51.950465 52.088964 52.217033 52.334982 52.442307 52.539278 52.625488 52.701160 52.765979 52.820117 52.863352 52.895800 52.917328 52.927993 52.927752 52.916602 52.894588 52.861649 52.817916 52.763272 52.697937 52.621737 52.534986 52.437459 52.329560 52.211020 52.082340 51.943207 51.794223 51.635040 51.466360 51.287809 51.100187 50.903103 50.697457 50.482842 50.260261 50.029296 49.791047 49.545092 49.292625 49.033219 48.768155 48.497007 48.221132 47.940102 47.655344 47.366425 47.074828 46.780113 46.483807 46.185459 45.886624 45.586837 45.287667 44.988628 44.691287 44.395136 44.101725 43.810520 43.523038 43.238715 42.959026 42.683372 42.413174 42.147799 41.888602 41.634916 41.388020 41.147214 40.913697 40.686736 40.467441 40.255054 40.050588 39.853263 39.663994 39.481983 39.308045 39.141367 38.982664 38.831114 38.687330 38.550490 38.421103 38.298352 38.182646 38.073176 37.970254 37.873088 37.781891 37.695896 37.615220 37.539125 37.467638 37.400055 37.336315 37.275755 37.218229 37.163122 37.110206 37.058919 37.008956 36.959812 36.911111
37.288889 37.352396 37.416385 37.481265 37.547585 37.615676 37.686150 37.759252 37.835652 37.915506 37.999532 38.087794 38.181056 38.279282 38.383272 38.492891 38.608969 38.731266 38.860635 38.996728 39.140416 39.291241 39.450083 39.616372 39.790991 39.973258 40.164051 40.362576 40.569700 40.784517 41.007878 41.238767 41.478011 41.724490 41.979002 42.240325 42.509225 42.784385 43.066536 43.354272 43.648288 43.947098 44.251359 44.559518 44.872193 45.187777 45.506851 45.827765 46.151069 46.475086 46.800337 47.125133 47.449971 47.773170 48.095205 48.414419 48.731274 49.044150 49.353501 49.657761 49.957379 50.250856 50.538642 50.819317 51.093329 51.359350 51.617827 51.867531 52.108906 52.340826 52.563730 52.776599 52.979862 53.172609 53.355249 53.526984 53.688198 53.838200 53.977343 54.105041 54.221608 54.326562 54.420170 54.502049 54.572415 54.630984 54.677912 54.713011 54.736377 54.747914 54.747656 54.735599 54.711712 54.676086 54.628624 54.569513 54.498594 54.416148 54.321960 54.216409 54.099227 53.970894 53.831095 53.680413 53.518495 53.346029 53.162631 52.969097 52.765017 52.551299 52.327514 52.094681 51.852359 51.601673 51.342180 51.075108 50.800011 50.518216 50.229276 49.934610 49.633772 49.328261 49.017628 48.703441 48.385249 48.064674 47.741255 47.416654 47.090397 46.764171 46.437481 46.112020 45.787272 45.464919 45.144416 44.827420 44.513353 44.203832 43.898243 43.598148 43.302896 43.013983 42.730720 42.454525 42.184672 41.922492 41.667224 41.420107 41.180345 40.949077 40.725481 40.510591 40.303560 40.105315 39.914992 39.733409 39.559687 39.394536 39.237071 39.087890 38.946110 38.812220 38.685344 38.565862 38.452914 38.346774 38.246601 38.152567 38.063860 37.980550 37.901860 37.827763 37.757523 37.691020 37.627565 37.566949 37.508536 37.452034 37.396863 37.342653 37.288889
37.666667 37.736303 37.806422 37.877582 37.950183 38.024853 38.101907 38.182036 38.265460 38.352927 38.444562 38.541163 38.642750 38.750165 38.863323 38.983101 39.109303 39.242835 39.383388 39.531887 39.687907 39.852388 40.024785 40.206042 40.395497 40.594091 40.801040 41.017277 41.241897 41.475816 41.718012 41.969376 42.228771 42.497060 42.772992 43.057397 43.348917 43.648344 43.954222 44.267300 44.586032 44.911125 45.240953 45.576181 45.915115 46.258378 46.604224 46.953237 47.303633 47.655963 48.008421 48.361528 48.713477 49.064765 49.413600 49.760463 50.103593 50.443462 50.778360 51.108752 51.432996 51.751555 52.062867 52.367399 52.663681 52.952181 53.231535 53.502210 53.762952 54.014228 54.254897 54.485420 54.704774 54.913404 55.110409 55.296211 55.470025 55.632245 55.782199 55.920246 56.045823 56.159244 56.260056 56.348517 56.424279 56.487543 56.538062 56.575970 56.601122 56.613585 56.613309 56.600293 56.574585 56.536115 56.485028 56.421185 56.344833 56.255768 56.154337 56.040279 55.914045 55.775321 55.624666 55.461720 55.287154 55.100571 54.902757 54.693284 54.473057 54.241627 54.000016 53.747763 53.486008 53.214283 52.933842 52.644217 52.346773 52.041043 51.728495 51.408665 51.083115 50.751383 50.415113 50.073840 49.729279 49.380958 49.030643 48.677852 48.324386 47.969746 47.615749 47.261873 46.909933 46.559380 46.212007 45.867232 45.526812 45.190127 44.858882 44.532415 44.212366 43.898031 43.590971 43.290440 42.997910 42.712592 42.435864 42.166897 41.906963 41.655201 41.412772 41.178784 40.954286 40.738361 40.531941 40.334093 40.145629 39.965606 39.794717 39.632017 39.478079 39.331962 39.194124 39.063633 38.940833 38.824811 38.715798 38.612907 38.516261 38.425005 38.339155 38.257898 38.181150 38.108141 38.038692 37.972085 37.908049 37.845927 37.785359 37.725753 37.666667