# vtk DataFile Version 3.0
Steady-state temperature (Jacobi)
ASCII
DATASET STRUCTURED_POINTS
DIMENSIONS 181 181 1
ORIGIN 0.0 0.0 0.0
SPACING 0.05 0.05 1.0
POINT_DATA 32761
SCALARS Temperature float 1
LOOKUP_TABLE default
32.000000 32.000000 32.000000 32.000000 32.000000 32.000000 32.000000 32.000000
32.000000 32.000000 32.000000 32.000000 32.000000 32.000000 32.000000 32.000000
32.000000 32.000000 32.000000 32.000000 32.000000 32.000000 32.000000 32.000000
32.000000 32.000000 32.000000 32.000000 32.000000 32.000000 32.000000 32.000000
32.000000 32.000000 32.000000 32.000000 32.000000 32.000000 32.000000 32.000000
32.000000 32.000000 32.000000 32.000000 32.000000 32.000000 32.000000 32.000000
32.000000 32.000000 32.000000 32.000000 32.000000 32.000000 32.000000 32.000000
32.000000 32.000000 32.000000 32.000000 32.000000 32.000000 32.000000 32.000000
32.000000 32.000000 32.000000 32.000000 32.000000 32.000000 32.000000 32.000000
32.000000 32.000000 32.000000 32.000000 32.000000 32.000000 32.000000 32.000000
32.000000 32.000000 32.000000 32.000000 32.000000 32.000000 32.000000 32.000000
32.000000 32.000000 32.000000 32.000000 32.000000 32.000000 32.000000 32.000000
32.000000 32.000000 32.000000 32.000000 32.000000 32.000000 32.000000 32.000000
32.000000 32.000000 32.000000 32.000000 32.000000 32.000000 32.000000 32.000000
32.000000 32.000000 32.000000 32.000000 32.000000 32.000000 32.000000 32.000000
32.000000 32.000000 32.000000 32.000000 32.000000 32.000000 32.000000 32.000000
32.000000 32.000000 32.000000 32.000000 32.000000 32.000000 32.000000 32.000000
32.000000 32.000000 32.000000 32.000000 32.000000 32.000000 32.000000 32.000000
32.000000 32.000000 32.000000 32.000000 32.000000 32.000000 32.000000 32.000000
32.000000 32.000000 32.000000 32.000000 32.000000 32.000000 32.000000 32.000000
32.000000 32.000000 32.000000 32.000000 32.000000 32.000000 32.000000 32.000000
32.000000 32.000000 32.000000 32.000000 32.000000 32.000000 32.000000 32.000000
32.000000 32.000000 32.000000 32.000000 32.000000
32.377778 32.372259 32.366772 32.361355 32.356032 32.350847 32.345819 32.340996
32.336390 32.332054 32.327993 32.324264 32.320866 32.317858 32.315231 32.313049
32.311295 32.310036 32.309244 32.308993 32.309244 32.310073 32.311433 32.313403
32.315926 32.319082 32.322805 32.327177 32.332123 32.337725 32.343899 32.350729
32.358120 32.366157 32.374736 32.383943 32.393663 32.403985 32.414784 32.426149
32.437948 32.450268 32.462972 32.476146 32.489646 32.503558 32.517733 32.532256
32.546975 32.561975 32.577100 32.592433 32.607819 32.623340 32.638839 32.654400
32.669866 32.685319 32.700607 32.715811 32.730780 32.745596 32.760114 32.774414
32.788356 32.802019 32.815271 32.828188 32.840647 32.852720 32.864294 32.875437
32.886047 32.896186 32.905763 32.914835 32.923322 32.931275 32.938625 32.945417
32.951591 32.957189 32.962159 32.966535 32.970279 32.973416 32.975917 32.977801
32.979050 32.979673 32.979665 32.979025 32.977759 32.975858 32.973339 32.970184
32.966421 32.962025 32.957033 32.951414 32.945216 32.938398 32.931022 32.923040
32.914522 32.905417 32.895805 32.885628 32.874978 32.863792 32.852171 32.840049
32.827537 32.814564 32.801251 32.787525 32.773515 32.759143 32.744549 32.729652
32.714597 32.699303 32.683920 32.668366 32.652795 32.637124 32.621509 32.605868
32.590356 32.574891 32.559630 32.544488 32.529622 32.514947 32.500615 32.486541
32.472875 32.459531 32.446652 32.434154 32.422173 32.410623 32.399636 32.389125
32.379213 32.369814 32.361043 32.352813 32.345230 32.338210 32.331848 32.326060
32.320933 32.316384 32.312490 32.309170 32.306491 32.304373 32.302874 32.301918
32.301551 32.301700 32.302403 32.303589 32.305287 32.307428 32.310035 32.313042
32.316462 32.320233 32.324360 32.328786 32.333509 32.338474 32.343673 32.349057
32.354609 32.360285 32.366063 32.371903 32.377778
32.755556 32.744537 32.733588 32.722767 32.712152 32.701791 32.691772 32.682130
32.672963 32.664290 32.656222 32.648759 32.642023 32.635998 32.630813 32.626438
32.623007 32.620473 32.618977 32.618455 32.619054 32.620691 32.623518 32.627434
32.632596 32.638882 32.646454 32.655172 32.665199 32.676375 32.688868 32.702498
32.717435 32.733478 32.750799 32.769181 32.788795 32.809405 32.831185 32.853881
32.877667 32.902274 32.927875 32.954189 32.981387 33.009177 33.037729 33.066742
33.096385 33.126349 33.156803 33.187435 33.218411 33.249416 33.280618 33.311702
33.342833 33.373702 33.404472 33.434840 33.464967 33.494560 33.523776 33.552335
33.580391 33.607676 33.634342 33.660136 33.685204 33.709311 33.732597 33.754847
33.776191 33.796435 33.815700 33.833813 33.850884 33.866762 33.881545 33.895103
33.907523 33.918696 33.928693 33.937428 33.944958 33.951219 33.956250 33.960010
33.962523 33.963766 33.963750 33.962473 33.959926 33.956132 33.951065 33.944769
33.937200 33.928425 33.918385 33.907169 33.894701 33.881093 33.866255 33.850320
33.833187 33.815009 33.795673 33.775354 33.753929 33.731593 33.708214 33.684008
33.658835 33.632928 33.606142 33.578729 33.550537 33.521834 33.492465 33.462710
33.432412 33.401864 33.370904 33.339834 33.308493 33.277188 33.245755 33.214508
33.183280 33.152387 33.121659 33.091411 33.061474 33.032158 33.003291 32.975179
32.947648 32.920993 32.895043 32.870079 32.845930 32.822864 32.800709 32.779720
32.759723 32.740957 32.723250 32.706821 32.691501 32.677490 32.664621 32.653074
32.642684 32.633615 32.625701 32.619087 32.613612 32.609400 32.606297 32.604405
32.603575 32.603892 32.605211 32.607599 32.610917 32.615215 32.620359 32.626383
32.633161 32.640710 32.648911 32.657767 32.667166 32.677096 32.687455 32.698218
32.709289 32.720632 32.732162 32.743827 32.755556
33.133333 33.116859 33.100481 33.084311 33.068427 33.052958 33.037961 33.023582
33.009857 32.996945 32.984862 32.973780 32.963691 32.954780 32.947016 32.940593
32.935457 32.931813 32.929579 32.928970 32.929877 32.932524 32.936773 32.942858
32.950609 32.960267 32.971636 32.984960 33.000012 33.017044 33.035798 33.056528
33.078949 33.103318 33.129319 33.157213 33.186656 33.217909 33.250603 33.284999
33.320705 33.357981 33.396412 33.436258 33.477086 33.519155 33.562015 33.605924
33.650421 33.695760 33.741473 33.787813 33.834307 33.881205 33.928035 33.975045
34.021766 34.068445 34.114620 34.160535 34.205741 34.250479 34.294315 34.337484
34.379574 34.420814 34.460815 34.499796 34.537396 34.573825 34.608748 34.642366
34.674373 34.704958 34.733844 34.761207 34.786801 34.810786 34.832947 34.853427
34.872044 34.888919 34.903904 34.917097 34.928383 34.937838 34.945379 34.951057
34.954822 34.956701 34.956676 34.954748 34.950931 34.945202 34.937608 34.928098
34.916755 34.903502 34.888454 34.871512 34.852824 34.832269 34.810026 34.785955
34.760269 34.732807 34.703816 34.673117 34.640989 34.607241 34.572180 34.535602
34.497845 34.458694 34.418514 34.377082 34.334788 34.291402 34.247337 34.202357
34.156894 34.110708 34.064248 34.017269 33.970232 33.922891 33.875715 33.828454
33.781582 33.734848 33.688725 33.642961 33.598023 33.553658 33.510327 33.467774
33.426447 33.386089 33.347134 33.309324 33.273073 33.238123 33.204866 33.173045
33.143028 33.114558 33.087978 33.063031 33.040035 33.018733 32.999415 32.981829
32.966233 32.952380 32.940501 32.930350 32.922130 32.915603 32.910940 32.907911
32.906659 32.906961 32.908932 32.912357 32.917325 32.923631 32.931337 32.940248
32.950402 32.961614 32.973900 32.987086 33.001164 33.015975 33.031488 33.047558
33.064134 33.081085 33.098342 33.115786 33.133333
33.511111 33.489238 33.467505 33.446028 33.424967 33.404415 33.384555 33.365449
33.347302 33.330148 33.314209 33.299491 33.286232 33.274407 33.264270 33.255763
33.249156 33.244355 33.241643 33.240891 33.242395 33.245989 33.251979 33.260161
33.270850 33.283804 33.299346 33.317194 33.337680 33.360480 33.385931 33.413672
33.444043 33.476643 33.511818 33.549127 33.588918 33.630715 33.674866 33.720863
33.769052 33.818895 33.870738 33.924015 33.979069 34.035314 34.093090 34.151790
34.211755 34.272363 34.333952 34.395893 34.458520 34.521201 34.584268 34.647092
34.710001 34.772375 34.834539 34.895885 34.956734 35.016498 35.075493 35.133155
35.189791 35.244868 35.298684 35.350736 35.401314 35.449951 35.496922 35.541799
35.584843 35.625664 35.664506 35.701021 35.735433 35.767436 35.797230 35.824552
35.849578 35.872089 35.892231 35.909828 35.924998 35.937608 35.947744 35.955317
35.960378 35.962883 35.962850 35.960278 35.955150 35.947508 35.937302 35.924618
35.909372 35.891695 35.871469 35.848869 35.823748 35.796325 35.766423 35.734306
35.699771 35.663124 35.624141 35.583170 35.539964 35.494914 35.447758 35.398924
35.348134 35.295857 35.241801 35.186469 35.129561 35.071611 35.012310 34.952222
34.891031 34.829324 34.766780 34.704006 34.640676 34.577411 34.513881 34.450717
34.387586 34.325120 34.262985 34.201809 34.141257 34.081949 34.023545 33.966654
33.910935 33.856976 33.804435 33.753879 33.704963 33.658228 33.613327 33.570772
33.530217 33.492139 33.456194 33.422823 33.391685 33.363184 33.336981 33.313442
33.292232 33.273680 33.257456 33.243848 33.232534 33.223764 33.217224 33.213123
33.211159 33.211505 33.213865 33.218379 33.224762 33.233118 33.243177 33.255007
33.268353 33.283251 33.299461 33.316987 33.335607 33.355295 33.375846 33.397208
33.419192 33.441722 33.464627 33.487806 33.511111
33.888889 33.861705 33.834681 33.808008 33.781815 33.756318 33.731616 33.707950
33.685384 33.664184 33.644376 33.626249 33.609791 33.595311 33.582759 33.572462
33.564326 33.558697 33.555438 33.554911 33.556932 33.561878 33.569517 33.580241
33.593769 33.610501 33.630111 33.653007 33.678813 33.707944 33.739974 33.775327
33.813525 33.854997 33.899217 33.946617 33.996626 34.049676 34.105152 34.163487
34.224026 34.287201 34.352320 34.419813 34.488958 34.560182 34.632735 34.707042
34.782335 34.859034 34.936357 35.014721 35.093336 35.172617 35.251774 35.331218
35.410165 35.489022 35.567020 35.644561 35.720898 35.796424 35.870421 35.943276
36.014301 36.083876 36.151351 36.217093 36.280496 36.341912 36.400782 36.457441
36.511377 36.562907 36.611569 36.657656 36.700759 36.741145 36.778459 36.812934
36.844272 36.872673 36.897891 36.920091 36.939082 36.954990 36.967677 36.977230
36.983565 36.986726 36.986685 36.983441 36.977022 36.967383 36.954607 36.938608
36.919522 36.897221 36.871898 36.843386 36.811930 36.777328 36.739881 36.699351
36.656094 36.609842 36.561004 36.509286 36.455148 36.398273 36.339172 36.277509
36.213842 36.147818 36.080043 36.010149 35.938785 35.865570 35.791191 35.715260
35.638496 35.560503 35.482029 35.402672 35.323199 35.243204 35.163469 35.083584
35.004339 34.925318 34.847313 34.769905 34.693877 34.618810 34.545473 34.473441
34.403466 34.335120 34.269129 34.205063 34.143616 34.084358 34.027945 33.973949
33.922985 33.874624 33.829441 33.787007 33.747852 33.711549 33.678580 33.648525
33.621817 33.598041 33.577582 33.560031 33.545726 33.534267 33.525942 33.520365
33.517773 33.517793 33.520619 33.525888 33.533750 33.543860 33.556323 33.570810
33.587385 33.605738 33.625894 33.647562 33.670729 33.695126 33.720704 33.747215
33.774579 33.802570 33.831075 33.859896 33.888889
34.266667 34.234266 34.202076 34.170273 34.139103 34.108702 34.079349 34.051139
34.024380 33.999127 33.975713 33.954150 33.934797 33.917617 33.902994 33.890842
33.881567 33.875031 33.871661 33.871263 33.874283 33.880473 33.890293 33.903439
33.920385 33.940768 33.965075 33.992881 34.024685 34.060003 34.099340 34.142154
34.188955 34.239141 34.293229 34.350560 34.411651 34.475791 34.543496 34.614004
34.687832 34.764171 34.843536 34.925076 35.009305 35.095336 35.183680 35.273421
35.365066 35.457681 35.551766 35.646374 35.742004 35.837703 35.933965 36.029843
36.125824 36.220975 36.315779 36.409324 36.502084 36.593179 36.683075 36.770926
36.857192 36.941068 37.023002 37.102239 37.179210 37.253215 37.324667 37.392923
37.458373 37.520435 37.579474 37.634968 37.687254 37.735873 37.781127 37.822623
37.860624 37.894802 37.925379 37.952091 37.975116 37.994255 38.009636 38.021129
38.028809 38.032612 38.032562 38.028660 38.020879 38.009283 37.993796 37.974547
37.951409 37.924576 37.893873 37.859561 37.821418 37.779771 37.734356 37.685565
37.633095 37.577404 37.518154 37.455866 37.390173 37.321658 37.249929 37.175627
37.098339 37.018764 36.936471 36.852211 36.765538 36.677254 36.586900 36.495321
36.402047 36.307961 36.212586 36.116834 36.020222 35.923683 35.826728 35.730304
35.633918 35.538522 35.443617 35.350152 35.257626 35.166973 35.077689 34.990688
34.905463 34.822900 34.742488 34.665081 34.590163 34.518548 34.449719 34.384445
34.322208 34.263726 34.208483 34.157144 34.109194 34.065242 34.024780 33.988356
33.955469 33.926610 33.901284 33.879925 33.862046 33.848022 33.837381 33.830438
33.826734 33.826530 33.829382 33.835495 33.844443 33.856379 33.870896 33.888096
33.907593 33.929440 33.953274 33.979103 34.006588 34.035691 34.066100 34.097738
34.130318 34.163723 34.197698 34.232087 34.266667
34.644444 34.606957 34.569697 34.532932 34.496848 34.461750 34.427778 34.395273
34.364326 34.335312 34.308273 34.283613 34.261319 34.241828 34.225068 34.211502
34.201001 34.194052 34.190463 34.190745 34.194642 34.202683 34.214547 34.230782
34.250997 34.275755 34.304597 34.338099 34.375731 34.418079 34.464545 34.515721
34.570940 34.630800 34.694566 34.762839 34.834819 34.911109 34.990846 35.074633
35.161551 35.252200 35.345610 35.442377 35.541486 35.643531 35.747459 35.853858
35.961647 36.071410 36.182046 36.294134 36.406563 36.519906 36.633053 36.746573
36.859365 36.971992 37.083373 37.194066 37.303020 37.410782 37.516343 37.620240
37.721510 37.820678 37.916835 38.010493 38.100800 38.188250 38.272058 38.352693
38.429439 38.502739 38.571948 38.637476 38.698753 38.756150 38.809173 38.858152
38.902668 38.943004 38.978816 39.010337 39.037299 39.059881 39.077892 39.091451
39.100444 39.104930 39.104873 39.100270 39.091160 39.077481 39.059347 39.036637
39.009541 38.977881 38.941921 38.901430 38.856748 38.807593 38.754382 38.696784
38.635292 38.569534 38.500079 38.426515 38.349486 38.268549 38.184418 38.096622
38.005945 37.911894 37.815317 37.715701 37.613956 37.509555 37.403459 37.295131
37.185579 37.074255 36.962207 36.848880 36.735352 36.621060 36.507104 36.392916
36.279605 36.166598 36.055007 35.944251 35.835434 35.727972 35.622947 35.519771
35.419500 35.321540 35.226910 35.135014 35.046826 34.961747 34.880701 34.803087
34.729772 34.660156 34.595045 34.533841 34.477284 34.424780 34.377004 34.333367
34.294475 34.259746 34.229720 34.203823 34.182526 34.165269 34.152454 34.143535
34.138849 34.137867 34.140860 34.147318 34.157449 34.170767 34.187416 34.206935
34.229412 34.254407 34.281956 34.311647 34.343460 34.377015 34.412242 34.448791
34.486546 34.525190 34.564563 34.604382 34.644444
35.022222 34.979779 34.937621 34.895986 34.855205 34.815465 34.777139 34.740360
34.705540 34.672757 34.642458 34.614662 34.589853 34.567983 34.549568 34.534497
34.523314 34.515838 34.512640 34.513468 34.518916 34.528656 34.543306 34.562460
34.586755 34.615706 34.649964 34.688966 34.733377 34.782551 34.837164 34.896491
34.961213 35.030527 35.105120 35.184112 35.268190 35.356403 35.449437 35.546273
35.647596 35.752322 35.861134 35.972893 36.088276 36.206096 36.327027 36.449844
36.575212 36.701880 36.830508 36.959827 37.090492 37.221227 37.352681 37.483586
37.614583 37.744423 37.873740 38.001313 38.127770 38.251930 38.374409 38.494078
38.611540 38.725726 38.837223 38.945027 39.049708 39.150333 39.247451 39.340204
39.429112 39.513401 39.593555 39.668883 39.739832 39.805796 39.867174 39.923448
39.974968 40.021300 40.062740 40.098940 40.130136 40.156067 40.176903 40.192471
40.202875 40.208026 40.207960 40.202676 40.192139 40.176434 40.155457 40.129380
40.098032 40.061672 40.020064 39.973554 39.921845 39.865370 39.803777 39.737584
39.666390 39.590799 39.510363 39.425774 39.336542 39.243444 39.145956 39.044936
38.939833 38.831579 38.719601 38.604906 38.486900 38.366655 38.243565 38.118758
37.991617 37.863322 37.733244 37.602604 37.470766 37.338978 37.206601 37.074899
36.943227 36.812858 36.683138 36.555336 36.428793 36.304762 36.182577 36.063464
35.946753 35.833633 35.723426 35.617276 35.514502 35.416192 35.321661 35.231937
35.146334 35.065810 34.989680 34.918832 34.852582 34.791741 34.735632 34.684989
34.639140 34.598741 34.563130 34.532885 34.507355 34.487040 34.471306 34.460572
34.454225 34.452609 34.455130 34.462058 34.472823 34.487625 34.505919 34.527837
34.552863 34.581063 34.611951 34.645532 34.681352 34.719358 34.759130 34.800560
34.843264 34.887082 34.931670 34.976817 35.022222
35.400000 35.352773 35.305843 35.259560 35.214165 35.170057 35.127420 35.086696
35.048008 35.011843 34.978257 34.947776 34.920388 34.896657 34.876497 34.860506
34.848522 34.841177 34.838227 34.840331 34.847165 34.859412 34.876663 34.899624
34.927796 34.961905 35.001363 35.046912 35.097872 35.154997 35.217517 35.286196
35.360174 35.440220 35.525387 35.616445 35.712364 35.813914 35.919985 36.031345
36.146808 36.267140 36.391088 36.519412 36.650799 36.786004 36.923666 37.064533
37.207206 37.352425 37.498766 37.646964 37.795580 37.945342 38.094814 38.244714
38.393621 38.542248 38.689199 38.835178 38.978832 39.120853 39.259940 39.396775
39.530117 39.660634 39.787158 39.910337 40.029081 40.144017 40.254140 40.360048
40.460825 40.557036 40.647858 40.733815 40.814180 40.889429 40.958932 41.023111
41.081434 41.134264 41.181165 41.222435 41.257735 41.287293 41.310868 41.328613
41.340383 41.346255 41.346181 41.340160 41.328240 41.310341 41.286608 41.256886
41.221414 41.179965 41.132875 41.079845 41.021310 40.956904 40.887160 40.811653
40.731013 40.644760 40.553622 40.457072 40.355932 40.249635 40.139097 40.023716
39.904497 39.780812 39.653749 39.522657 39.388704 39.251221 39.111447 38.968698
38.824275 38.677484 38.529677 38.380150 38.230296 38.079403 37.928892 37.778044
37.628294 37.478915 37.331345 37.184851 37.040857 36.898624 36.759552 36.622893
36.490013 36.360157 36.234642 36.112708 35.995614 35.882595 35.774845 35.671594
35.573962 35.481180 35.394288 35.312518 35.236824 35.166444 35.102245 35.043469
34.990897 34.943779 34.902807 34.867244 34.837691 34.813427 34.794967 34.781606
34.773773 34.770786 34.772989 34.779724 34.791254 34.806950 34.826995 34.850789
34.878444 34.909390 34.943666 34.980741 35.020585 35.062703 35.107003 35.153029
35.200628 35.249388 35.299097 35.349390 35.400000
35.777778 35.725933 35.674452 35.623636 35.573904 35.525497 35.478886 35.434244
35.392091 35.352528 35.316125 35.282906 35.253483 35.227802 35.206515 35.189484
35.177398 35.170034 35.168111 35.171317 35.180402 35.194958 35.215762 35.242309
35.275400 35.314430 35.360218 35.412060 35.470789 35.535600 35.607336 35.685093
35.769722 35.860217 35.957434 36.060271 36.169585 36.284181 36.404914 36.530503
36.661798 36.797439 36.938269 37.082857 37.232041 37.384328 37.540548 37.699160
37.860984 38.024445 38.190354 38.357116 38.525532 38.694002 38.863318 39.031888
39.200498 39.367578 39.533906 39.697952 39.860483 40.020020 40.177322 40.330972
40.481716 40.628212 40.771190 40.909392 41.043525 41.172425 41.296770 41.415495
41.529245 41.637056 41.739532 41.835815 41.926462 42.010720 42.089091 42.160931
42.226679 42.285798 42.338657 42.384829 42.424607 42.457670 42.484232 42.504079
42.517340 42.523908 42.523825 42.517092 42.503664 42.483647 42.456910 42.423664
42.383697 42.337326 42.284257 42.224916 42.158933 42.086842 42.008203 41.923658
41.832705 41.736094 41.633266 41.525079 41.410926 41.291770 41.166962 41.037569
40.902909 40.764144 40.620567 40.473432 40.322010 40.167640 40.009575 39.849229
39.685843 39.520896 39.353616 39.185535 39.015874 38.846202 38.675731 38.506055
38.336378 38.168305 38.001030 37.836153 37.672861 37.512732 37.354945 37.201045
37.050202 36.903913 36.761341 36.623923 36.490816 36.363387 36.240786 36.124304
36.013087 35.908339 35.809206 35.716799 35.630266 35.550624 35.477024 35.410385
35.349868 35.296290 35.248823 35.208186 35.173566 35.145581 35.123438 35.107659
35.097470 35.093299 35.094399 35.101104 35.112695 35.129420 35.150590 35.176367
35.206098 35.239864 35.277050 35.317658 35.361113 35.407346 35.455824 35.506408
35.558613 35.612233 35.666832 35.722141 35.777778
36.155556 36.099306 36.043428 35.988353 35.934386 35.882020 35.831486 35.783334
35.737718 35.695243 35.655982 35.620587 35.589047 35.562061 35.539528 35.522188
35.509847 35.503283 35.502205 35.507425 35.518549 35.536422 35.560544 35.591784
35.629537 35.674694 35.726537 35.785978 35.852186 35.926086 36.006737 36.095073
36.190041 36.292581 36.401530 36.517832 36.640218 36.769629 36.904698 37.046361
37.193159 37.346020 37.503402 37.666224 37.832871 38.004254 38.178695 38.357095
38.537732 38.721494 38.906629 39.094014 39.281883 39.471103 39.659909 39.849161
40.037110 40.224608 40.409943 40.593957 40.774987 40.953866 41.128996 41.301198
41.468953 41.633065 41.792104 41.946855 42.095987 42.240259 42.378444 42.511271
42.637623 42.758189 42.871969 42.979602 43.080205 43.174362 43.261308 43.341562
43.414478 43.480503 43.539109 43.590663 43.634755 43.671666 43.701104 43.723259
43.737954 43.745287 43.745196 43.737683 43.722804 43.700462 43.670831 43.633720
43.589420 43.537647 43.478811 43.412542 43.339367 43.258837 43.171597 43.077125
42.976185 42.868192 42.754026 42.633046 42.506250 42.372949 42.234256 42.089442
41.939730 41.784360 41.624662 41.459848 41.291347 41.118353 40.942383 40.762615
40.580645 40.395639 40.209258 40.020659 39.831554 39.641089 39.451014 39.260466
39.071212 38.882383 38.695748 38.510428 38.328177 38.148108 37.971944 37.798787
37.630316 37.465623 37.306328 37.151512 37.002723 36.859036 36.721916 36.590431
36.465956 36.347553 36.236500 36.131859 36.034802 35.944395 35.861701 35.785793
35.717625 35.656279 35.602598 35.555679 35.516256 35.483441 35.457860 35.438649
35.426327 35.420054 35.420247 35.426096 35.437917 35.454933 35.477365 35.504472
35.536384 35.572398 35.612558 35.656205 35.703297 35.753222 35.805861 35.860651
35.917397 35.975589 36.034962 36.095061 36.155556
36.533333 36.472879 36.412869 36.353675 36.295807 36.239562 36.185515 36.133881
36.085293 36.039881 35.998335 35.960693 35.927699 35.899294 35.876270 35.858468
35.846722 35.840772 35.841489 35.848503 35.862722 35.883663 35.912264 35.947924
35.991608 36.042596 36.101874 36.168600 36.243777 36.326439 36.417603 36.516178
36.623189 36.737425 36.859912 36.989324 37.126683 37.270551 37.421946 37.579323
37.743693 37.913412 38.089483 38.270176 38.456479 38.646592 38.841490 39.039311
39.241020 39.444713 39.651341 39.858974 40.068554 40.278143 40.488671 40.698213
40.907691 41.115207 41.321676 41.525247 41.726826 41.924627 42.119543 42.309871
42.496488 42.677784 42.854620 43.025489 43.191228 43.350444 43.503944 43.650455
43.790746 43.923667 44.049942 44.168548 44.280153 44.383864 44.480282 44.568644
44.649477 44.722147 44.787098 44.843824 44.892679 44.933285 44.965898 44.990266
45.006546 45.014611 45.014513 45.006251 44.989771 44.965198 44.932376 44.891552
44.842470 44.785506 44.720304 44.647369 44.566253 44.477591 44.380852 44.276799
44.164827 44.045827 43.919131 43.785759 43.644985 43.497957 43.343903 43.184095
43.017724 42.846180 42.668625 42.486564 42.299133 42.107941 41.912109 41.713338
41.510734 41.306080 41.098471 40.889754 40.679015 40.468150 40.256237 40.045200
39.834109 39.624902 39.416637 39.211245 39.007775 38.808134 38.611358 38.419311
38.231018 38.048286 37.870128 37.698278 37.531738 37.372156 37.218525 37.072398
36.932761 36.801062 36.676282 36.559759 36.450472 36.349643 36.256255 36.171411
36.094101 36.025306 35.964030 35.911132 35.865631 35.828269 35.798085 35.775702
35.760186 35.752045 35.750374 35.755570 35.766763 35.784241 35.807173 35.835745
35.869165 35.907524 35.950074 35.996811 36.047038 36.100663 36.157039 36.215990
36.276928 36.339595 36.403461 36.468197 36.533333
36.911111 36.846704 36.782744 36.719755 36.658103 36.598385 36.540880 36.486251
36.434689 36.386917 36.343033 36.303816 36.269264 36.240210 36.216546 36.199155
36.187816 36.183458 36.185744 36.195645 36.212699 36.237915 36.270706 36.312109
36.361412 36.419674 36.486052 36.561627 36.645419 36.738526 36.839834 36.950450
37.069126 37.196973 37.332613 37.477157 37.629101 37.789549 37.956878 38.132184
38.313733 38.502607 38.696974 38.897901 39.103468 39.314728 39.529687 39.749384
39.971768 40.197864 40.425583 40.655937 40.886820 41.119230 41.351064 41.583310
41.813889 42.043778 42.270942 42.496350 42.718027 42.936934 43.151177 43.361704
43.566717 43.767149 43.961309 44.150113 44.331988 44.507823 44.676174 44.837894
44.991673 45.138319 45.276661 45.407452 45.529661 45.643976 45.749506 45.846865
45.935302 46.015343 46.086379 46.148843 46.202260 46.246963 46.282614 46.309439
46.327234 46.336112 46.336006 46.326914 46.308903 46.281859 46.245980 46.201042
46.147379 46.084658 46.013351 45.933022 45.844280 45.746597 45.640719 45.526033
45.403427 45.272211 45.133413 44.986278 44.831976 44.669697 44.500746 44.324270
44.141710 43.952176 43.757237 43.555976 43.350082 43.138619 42.923384 42.703426
42.480638 42.254058 42.025659 41.794469 41.562524 41.328845 41.095510 40.861532
40.629013 40.396954 40.167461 39.939525 39.715235 39.493567 39.276574 39.063218
38.855499 38.652363 38.455737 38.264556 38.080658 37.902964 37.733216 37.570323
37.415917 37.268897 37.130778 37.000457 36.879322 36.766269 36.662560 36.567094
36.481001 36.403191 36.334662 36.274337 36.223083 36.179844 36.145357 36.118590
36.100154 36.089046 36.085753 36.089309 36.100081 36.117141 36.140742 36.169999
36.205057 36.245077 36.290101 36.339339 36.392736 36.449558 36.509653 36.572347
36.637401 36.704203 36.772428 36.841531 36.911111
37.288889 37.220759 37.153159 37.086533 37.021491 36.958388 36.897907 36.840309
36.786347 36.736182 36.690632 36.649751 36.614418 36.584576 36.561158 36.543991
36.534060 36.531066 36.536041 36.548560 36.569692 36.598881 36.637230 36.684046
36.740463 36.805645 36.880748 36.964795 37.058960 37.162118 37.275456 37.397706
37.530058 37.671101 37.822026 37.981282 38.150056 38.326661 38.512276 38.705087
38.906261 39.113867 39.329056 39.549796 39.777219 40.009204 40.246866 40.488015
40.733746 40.981818 41.233312 41.485954 41.740810 41.995601 42.251379 42.505879
42.760142 43.011942 43.262310 43.509077 43.753268 43.992792 44.228664 44.458890
44.684473 44.903531 45.117051 45.323277 45.523172 45.715116 45.900041 46.076470
46.245294 46.405184 46.556980 46.699503 46.833530 46.958034 47.073717 47.179703
47.276608 47.363706 47.441518 47.509466 47.567963 47.616578 47.655612 47.684779
47.704262 47.713916 47.713801 47.703919 47.684204 47.654800 47.615522 47.566654
47.507893 47.439669 47.361566 47.274158 47.176925 47.070590 46.954534 46.829631
46.695177 46.552196 46.399910 46.239494 46.070107 45.893076 45.707505 45.514872
45.314240 45.107227 44.892869 44.672918 44.446386 44.215153 43.978213 43.737557
43.492170 43.244141 42.992442 42.739242 42.483508 42.227465 41.970071 41.713592
41.456973 41.202495 40.949093 40.699039 40.451256 40.207985 39.968133 39.733893
39.504152 39.281036 39.063415 38.853327 38.649625 38.454246 38.266029 38.086795
37.915371 37.753455 37.599864 37.456163 37.321167 37.196302 37.080382 36.974695
36.878059 36.791619 36.714205 36.646820 36.588311 36.539538 36.499373 36.468538
36.445931 36.432140 36.426099 36.428263 36.437604 36.454454 36.477828 36.507936
36.543842 36.585643 36.632454 36.684261 36.740239 36.800270 36.863588 36.929978
36.998740 37.069565 37.141823 37.215116 37.288889
37.666667 37.595103 37.524068 37.454181 37.385877 37.319856 37.256457 37.196455
37.140085 37.088195 37.040909 36.999141 36.962899 36.933161 36.909809 36.893880
36.885126 36.884635 36.892026 36.908431 36.933330 36.967894 37.011457 37.065225
37.128382 37.202160 37.285591 37.379928 37.484046 37.599214 37.724149 37.860128
38.005712 38.162180 38.327940 38.504264 38.689414 38.884652 39.088097 39.300998
39.521342 39.750359 39.985919 40.229231 40.478059 40.733592 40.993508 41.258974
41.527602 41.800538 42.075349 42.353166 42.631534 42.911568 43.190817 43.470384
43.747848 44.024300 44.297372 44.568149 44.834338 45.097016 45.353986 45.606317
45.851927 46.091871 46.324199 46.549947 46.767308 46.977291 47.178242 47.371134
47.554471 47.729177 47.893918 48.049559 48.194930 48.330823 48.456229 48.571856
48.676855 48.771838 48.856115 48.930188 48.993525 49.046510 49.088764 49.120548
49.141635 49.152155 49.152033 49.141268 49.119933 49.087896 49.045381 48.992126
48.928508 48.854139 48.769551 48.674238 48.568887 48.452887 48.327082 48.190762
48.044934 47.888802 47.723537 47.548268 47.364329 47.170792 46.969150 46.758428
46.540278 46.313687 46.080461 45.839561 45.592935 45.339525 45.081410 44.817521
44.550051 44.277921 44.003423 43.725471 43.446432 43.165212 42.884232 42.602389
42.322133 42.042350 41.765493 41.490435 41.219609 40.951870 40.689609 40.431661
40.180351 39.934495 39.696332 39.464657 39.241607 39.025957 38.819728 38.621676
38.433693 38.254521 38.085913 37.926601 37.778193 37.639417 37.511728 37.393857
37.287105 37.190211 37.104323 37.028192 36.962815 36.906962 36.861479 36.825166
36.798717 36.780967 36.772468 36.772092 36.780254 36.795870 36.819223 36.849278
36.886190 36.928980 36.977683 37.031376 37.089982 37.152641 37.219168 37.288770
37.361159 37.435614 37.511752 37.588928 37.666667
38.044444 37.969706 37.895588 37.822615 37.751496 37.682654 37.616885 37.554502
37.496380 37.442718 37.394466 37.351701 37.315441 37.285635 37.263367 37.248449
37.242022 37.243758 37.254851 37.274824 37.304915 37.344497 37.394845 37.455174
37.526790 37.608746 37.702373 37.806558 37.922650 38.049366 38.188067 38.337301
38.498432 38.669843 38.852891 39.045798 39.249911 39.463295 39.687281 39.919786
40.162122 40.412069 40.670915 40.936321 41.209548 41.488154 41.773374 42.062683
42.357293 42.654616 42.955843 43.258353 43.563316 43.868101 44.173865 44.477995
44.781636 45.082221 45.380886 45.675135 45.966097 46.251372 46.532083 46.805945
47.074073 47.334317 47.587777 47.832454 48.069427 48.296856 48.515793 48.724563
48.924177 49.113134 49.292389 49.460616 49.618700 49.765491 49.901791 50.026621