# vtk DataFile Version 3.0
Steady-state temperature (Jacobi)
ASCII
DATASET STRUCTURED_POINTS
DIMENSIONS 181 181 1
ORIGIN 0.0 0.0 0.0
SPACING 0.05 0.05 1.0
POINT_DATA 32761
SCALARS Temperature float 1
LOOKUP_TABLE default
32.000000 32.000000 32.000000 32.000000 32.000000 32.000000 32.000000 32.000000
32.000000 32.000000 32.000000 32.000000 32.000000 32.000000 32.000000 32.000000
32.000000 32.000000 32.000000 32.000000 32.000000 32.000000 32.000000 32.000000
32.000000 32.000000 32.000000 32.000000 32.000000 32.000000 32.000000 32.000000
32.000000 32.000000 32.000000 32.000000 32.000000 32.000000 32.000000 32.000000
32.000000 32.000000 32.000000 32.000000 32.000000 32.000000 32.000000 32.000000
32.000000 32.000000 32.000000 32.000000 32.000000 32.000000 32.000000 32.000000
32.000000 32.000000 32.000000 32.000000 32.000000 32.000000 32.000000 32.000000
32.000000 32.000000 32.000000 32.000000 32.000000 32.000000 32.000000 32.000000
32.000000 32.000000 32.000000 32.000000 32.000000 32.000000 32.000000 32.000000
32.000000 32.000000 32.000000 32.000000 32.000000 32.000000 32.000000 32.000000
32.000000 32.000000 32.000000 32.000000 32.000000 32.000000 32.000000 32.000000
32.000000 32.000000 32.000000 32.000000 32.000000 32.000000 32.000000 32.000000
32.000000 32.000000 32.000000 32.000000 32.000000 32.000000 32.000000 32.000000
32.000000 32.000000 32.000000 32.000000 32.000000 32.000000 32.000000 32.000000
32.000000 32.000000 32.000000 32.000000 32.000000 32.000000 32.000000 32.000000
32.000000 32.000000 32.000000 32.000000 32.000000 32.000000 32.000000 32.000000
32.000000 32.000000 32.000000 32.000000 32.000000 32.000000 32.000000 32.000000
32.000000 32.000000 32.000000 32.000000 32.000000 32.000000 32.000000 32.000000
32.000000 32.000000 32.000000 32.000000 32.000000 32.000000 32.000000 32.000000
32.000000 32.000000 32.000000 32.000000 32.000000 32.000000 32.000000 32.000000
32.000000 32.000000 32.000000 32.000000 32.000000 32.000000 32.000000 32.000000
32.000000 32.000000 32.000000 32.000000 32.000000
32.377778 32.384630 32.391509 32.398450 32.405473 32.412617 32.419898 32.427357
32.435007 32.442890 32.451013 32.459424 32.468121 32.477154 32.486515 32.496258
32.506368 32.516899 32.527829 32.539213 32.551024 32.563317 32.576057 32.589300
32.603003 32.617223 32.631909 32.647118 32.662791 32.678985 32.695635 32.712794
32.730393 32.748482 32.766986 32.785954 32.805303 32.825081 32.845201 32.865707
32.886508 32.907646 32.929024 32.950684 32.972524 32.994584 33.016761 33.039091
33.061469 33.083930 33.106368 33.128817 33.151170 33.173459 33.195579 33.217561
33.239300 33.260828 33.282043 33.302973 33.323523 33.343719 33.363470 33.382802
33.401628 33.419975 33.437761 33.455011 33.471650 33.487702 33.503099 33.517864
33.531934 33.545333 33.558004 33.569969 33.581177 33.591651 33.601345 33.610278
33.618414 33.625769 33.632313 33.638059 33.642984 33.647098 33.650384 33.652850
33.654486 33.655295 33.655273 33.654421 33.652741 33.650231 33.646900 33.642742
33.637771 33.631979 33.625388 33.617985 33.609799 33.600815 33.591070 33.580543
33.569280 33.557259 33.544531 33.531073 33.516941 33.502114 33.486653 33.470534
33.453828 33.436508 33.418651 33.400231 33.381330 33.361921 33.342092 33.321816
33.301186 33.280173 33.258876 33.237264 33.215440 33.193373 33.171167 33.148793
33.126355 33.103821 33.081299 33.058755 33.036295 33.013886 32.991632 32.969498
32.947586 32.925859 32.904418 32.883221 32.862367 32.841813 32.821652 32.801839
32.782463 32.763477 32.744965 32.726875 32.709288 32.692150 32.675534 32.659387
32.643773 32.628639 32.614042 32.599927 32.586346 32.573242 32.560659 32.548542
32.536928 32.525760 32.515069 32.504798 32.494972 32.485536 32.476506 32.467829
32.459515 32.451513 32.443825 32.436404 32.429246 32.422305 32.415572 32.409004
32.402586 32.396280 32.390065 32.383906 32.377778
32.755556 32.769281 32.783066 32.796963 32.811041 32.825341 32.839939 32.854866
32.870207 32.885978 32.902272 32.919094 32.936540 32.954604 32.973387 32.992867
33.013152 33.034205 33.056135 33.078895 33.102593 33.127167 33.152729 33.179202
33.206696 33.235121 33.264587 33.294988 33.326434 33.358806 33.392209 33.426512
33.461818 33.497980 33.535100 33.573019 33.611835 33.651376 33.691735 33.732733
33.774457 33.816718 33.859600 33.902904 33.946712 33.990817 34.035298 34.079944
34.124827 34.169735 34.214738 34.259621 34.304451 34.349015 34.393376 34.437325
34.480922 34.523962 34.566505 34.608351 34.649558 34.689935 34.729539 34.768187
34.805935 34.842612 34.878272 34.912755 34.946114 34.978202 35.009069 35.038582
35.066790 35.093571 35.118972 35.142886 35.165355 35.186287 35.205719 35.223573
35.239882 35.254580 35.267697 35.279180 35.289051 35.297273 35.303860 35.308788
35.312067 35.313682 35.313639 35.311936 35.308570 35.303555 35.296878 35.288567
35.278604 35.267029 35.253818 35.239023 35.222615 35.204661 35.185125 35.164088
35.141509 35.117484 35.091968 35.065068 35.036738 35.007100 34.976104 34.943884
34.910389 34.875766 34.839964 34.803140 34.765243 34.726441 34.686682 34.646146
34.604778 34.562768 34.520059 34.476851 34.433084 34.388965 34.344433 34.299698
34.254697 34.209645 34.164474 34.119400 34.074354 34.029550 33.984915 33.940661
33.896711 33.853272 33.810263 33.767885 33.726054 33.684961 33.644519 33.604910
33.566041 33.528086 33.490947 33.454786 33.419501 33.385243 33.351907 33.319630
33.288303 33.258051 33.228763 33.200549 33.173298 33.147104 33.121857 33.097636
33.074330 33.052006 33.030551 33.010021 32.990303 32.971438 32.953318 32.935969
32.919287 32.903284 32.887860 32.873016 32.858657 32.844769 32.831266 32.818121
32.805254 32.792628 32.780171 32.767835 32.755556
33.133333 33.153979 33.174708 33.195619 33.216780 33.238303 33.260239 33.282712
33.305756 33.329504 33.353974 33.379307 33.405502 33.432708 33.460904 33.490245
33.520691 33.552402 33.585315 33.619596 33.655159 33.692173 33.730532 33.770404
33.811662 33.854472 33.898688 33.944475 33.991662 34.040414 34.090539 34.142197
34.195177 34.249634 34.305339 34.362439 34.420689 34.480229 34.540798 34.602530
34.665147 34.728779 34.793135 34.858336 34.924082 34.990487 35.057243 35.124459
35.191819 35.259429 35.326967 35.394536 35.461815 35.528899 35.595473 35.661628
35.727053 35.791837 35.855677 35.918660 35.980493 36.041261 36.100685 36.158847
36.215484 36.270676 36.324176 36.376063 36.426107 36.474387 36.520691 36.565094
36.607405 36.647694 36.685793 36.721767 36.755466 36.786951 36.816094 36.842948
36.867405 36.889513 36.909182 36.926453 36.941255 36.953620 36.963498 36.970909
36.975825 36.978255 36.978190 36.975630 36.970583 36.963040 36.953029 36.940530
36.925591 36.908181 36.888370 36.866118 36.841513 36.814508 36.785210 36.753566
36.719703 36.683562 36.645290 36.604823 36.562330 36.517739 36.471242 36.422764
36.372516 36.320420 36.266706 36.211294 36.154433 36.096042 36.036384 35.975378
35.913303 35.850074 35.785985 35.720949 35.655270 35.588860 35.522029 35.454688
35.387154 35.319331 35.251540 35.183683 35.116079 35.048625 34.981638 34.915009
34.849051 34.783647 34.719102 34.655293 34.592516 34.530641 34.469950 34.410306
34.351978 34.294823 34.239092 34.184636 34.131689 34.080097 34.030075 33.981464
33.934458 33.888894 33.844948 33.802452 33.761562 33.722108 33.684223 33.647739
33.612766 33.579137 33.546941 33.516013 33.486421 33.458002 33.430804 33.404669
33.379625 33.355519 33.332360 33.310002 33.288434 33.267520 33.247231 33.227440
33.208101 33.189097 33.170366 33.151804 33.133333
33.511111 33.538740 33.566491 33.594465 33.622803 33.651586 33.680969 33.711011
33.741884 33.773622 33.806409 33.840256 33.875358 33.911699 33.949484 33.988670
34.029471 34.071816 34.115923 34.161695 34.209352 34.258771 34.310172 34.363403
34.418687 34.475840 34.535086 34.596211 34.659435 34.724519 34.791677 34.860642
34.931622 35.004325 35.078952 35.155186 35.233219 35.312713 35.393850 35.476271
35.560150 35.645108 35.731313 35.818368 35.906431 35.995094 36.084507 36.174251
36.264470 36.354738 36.445191 36.535403 36.625502 36.715066 36.804216 36.892534
36.980139 37.066623 37.152100 37.236173 37.318956 37.400067 37.479618 37.557244
37.633057 37.706713 37.778319 37.847559 37.914534 37.978954 38.040917 38.100157
38.156772 38.210520 38.261494 38.309480 38.354563 38.396558 38.435543 38.471358
38.504073 38.533556 38.559865 38.582896 38.602694 38.619182 38.632393 38.642276
38.648851 38.652092 38.652005 38.648591 38.641842 38.631783 38.618395 38.601728
38.581747 38.558532 38.532035 38.502359 38.469448 38.433431 38.394239 38.352032
38.306731 38.258522 38.207318 38.153333 38.096475 38.036985 37.974764 37.910081
37.842833 37.773316 37.701423 37.627475 37.551364 37.473431 37.393569 37.312140
37.229035 37.144634 37.058825 36.972006 36.884061 36.795403 36.705911 36.616006
36.525566 36.435015 36.344226 36.253627 36.163084 36.073022 35.983301 35.894342
35.805994 35.718670 35.632213 35.547021 35.462928 35.380318 35.299016 35.219388
35.141248 35.064944 34.990280 34.917581 34.846645 34.777771 34.710750 34.645855
34.582872 34.522047 34.463160 34.406431 34.351636 34.298965 34.248195 34.199488
34.152618 34.107719 34.064569 34.023272 33.983609 33.945658 33.909204 33.874297
33.840729 33.808525 33.777485 33.747608 33.718704 33.690748 33.663562 33.637097
33.611189 33.585766 33.560681 33.535839 33.511111
33.888889 33.923595 33.958443 33.993594 34.029165 34.065342 34.102211 34.139979
34.178704 34.218610 34.259724 34.302284 34.346289 34.391988 34.439346 34.488624
34.539752 34.593001 34.648265 34.705821 34.765528 34.827666 34.892060 34.958989
35.028243 35.100100 35.174315 35.251162 35.330360 35.412181 35.496307 35.583002
35.671917 35.763308 35.856794 35.952619 36.050374 36.150293 36.251937 36.355532
36.460613 36.567394 36.675389 36.784801 36.895124 37.006552 37.118566 37.231348
37.344369 37.457803 37.571115 37.684471 37.797336 37.909868 38.021538 38.132497
38.242226 38.350869 38.457924 38.563529 38.667200 38.769074 38.868687 38.966174
39.061095 39.153584 39.243229 39.330161 39.413999 39.494869 39.572422 39.646782
39.717632 39.785090 39.848873 39.909092 39.965498 40.018193 40.066964 40.111901
40.152824 40.189812 40.222719 40.251611 40.276373 40.297056 40.313579 40.325976
40.334198 40.338264 40.338156 40.333874 40.325433 40.312817 40.296073 40.275167
40.250178 40.221055 40.187913 40.150684 40.109515 40.064327 40.015299 39.962339
39.905661 39.845163 39.781092 39.713339 39.642185 39.567513 39.489638 39.408437
39.324261 39.236981 39.146979 39.054125 38.958830 38.860961 38.760959 38.658688
38.554614 38.448599 38.341130 38.232067 38.121915 38.010531 37.898434 37.785475
37.672184 37.558405 37.444673 37.330826 37.217399 37.104222 36.991823 36.880024
36.769346 36.659598 36.551288 36.444215 36.338869 36.235037 36.133189 36.033100
35.935216 35.839301 35.745773 35.654387 35.565530 35.478947 35.394995 35.313411
35.234518 35.158046 35.084284 35.012957 34.944318 34.878090 34.814492 34.753242
34.694525 34.638061 34.583999 34.532062 34.482363 34.434630 34.388943 34.345038
34.302960 34.262454 34.223534 34.185956 34.149702 34.114544 34.080433 34.047155
34.014634 33.982675 33.951173 33.919954 33.888889
34.266667 34.308555 34.350628 34.393038 34.435996 34.479627 34.524163 34.569696
34.616481 34.664574 34.714250 34.765527 34.818698 34.873742 34.930964 34.990306
35.052084 35.116196 35.182968 35.252257 35.324393 35.399191 35.476985 35.557545
35.641206 35.727694 35.817342 35.909834 36.005498 36.103975 36.205585 36.309931
36.417322 36.527320 36.640226 36.755563 36.873621 36.993887 37.116639 37.241332
37.368228 37.496758 37.627168 37.758864 37.892080 38.026203 38.161454 38.297204
38.433663 38.570194 38.706994 38.843426 38.979676 39.115109 39.249904 39.383433
39.515871 39.646603 39.775798 39.902861 40.027958 40.150517 40.270700 40.387965
40.502472 40.613710 40.721837 40.826376 40.927481 41.024716 41.118229 41.207622
41.293040 41.374123 41.451009 41.523380 41.591365 41.654686 41.713460 41.767452
41.816763 41.861200 41.900849 41.935555 41.965388 41.990232 42.010138 42.025029
42.034935 42.039818 42.039689 42.034546 42.024379 42.009226 41.989056 41.963944
41.933839 41.898856 41.858925 41.814201 41.764595 41.710302 41.651219 41.587580
41.519270 41.446564 41.369333 41.287896 41.202114 41.112346 41.018448 40.920817
40.819305 40.714349 40.605795 40.494119 40.379163 40.261440 40.140790 40.017755
39.892175 39.764621 39.634928 39.503693 39.370748 39.236708 39.101401 38.965457
38.828695 38.691756 38.554453 38.417426 38.280481 38.144256 38.008545 37.873978
37.740336 37.608237 37.477449 37.348571 37.221356 37.096381 36.973385 36.852918
36.734704 36.619263 36.506306 36.396317 36.288996 36.184790 36.083389 35.985200
35.889903 35.797866 35.708761 35.622915 35.539994 35.460282 35.383443 35.309718
35.238771 35.170801 35.105473 35.042944 34.982883 34.925406 34.870191 34.817311
34.766455 34.717656 34.670615 34.625329 34.581514 34.539128 34.497905 34.457770
34.418477 34.379915 34.341864 34.304180 34.266667
34.644444 34.693654 34.743063 34.792900 34.843330 34.894613 34.946875 35.000404
35.055284 35.111828 35.170080 35.230371 35.292701 35.357421 35.424485 35.494256
35.566642 35.642019 35.720244 35.801702 35.886201 35.974130 36.065247 36.159943
36.257926 36.359584 36.464576 36.573285 36.685320 36.801057 36.920056 37.042684
37.168453 37.297720 37.429950 37.565485 37.703751 37.845074 37.988839 38.135358
38.283981 38.435001 38.587740 38.742475 38.898500 39.056078 39.214484 39.373964
39.533780 39.694166 39.854376 40.014632 40.174187 40.333254 40.491093 40.647907
40.802971 40.956480 41.107730 41.256910 41.403342 41.547212 41.687871 41.825505
41.959499 42.090036 42.216542 42.339196 42.457466 42.571529 42.680898 42.785744
42.885626 42.980708 43.070598 43.155450 43.234920 43.309149 43.377842 43.441125
43.498751 43.550829 43.597157 43.637827 43.672683 43.701794 43.725049 43.742497
43.754070 43.759792 43.759641 43.753617 43.741741 43.723988 43.700424 43.671001
43.635829 43.594837 43.548180 43.495767 43.437799 43.374164 43.305112 43.230513
43.150664 43.065422 42.975131 42.879635 42.779329 42.674047 42.564229 42.449705
42.330960 42.207820 42.080816 41.949768 41.815252 41.677084 41.535880 41.391455
41.244459 41.094706 40.942876 40.788780 40.633125 40.475716 40.317280 40.157616
39.997465 39.836617 39.675822 39.514858 39.354475 39.194442 39.035500 38.877403
38.720884 38.565679 38.412502 38.261074 38.112083 37.965235 37.821188 37.679631
37.541187 37.405530 37.273244 37.143989 37.018306 36.895841 36.777092 36.661692
36.550092 36.441914 36.337564 36.236656 36.139544 36.045838 35.955845 35.869170
35.786070 35.706152 35.629624 35.556096 35.485726 35.418133 35.353427 35.291235
35.231620 35.174225 35.119066 35.065802 35.014405 34.964554 34.916179 34.868981
34.822849 34.777511 34.732817 34.688523 34.644444
35.022222 35.078898 35.135820 35.193197 35.251311 35.310330 35.370567 35.432145
35.495407 35.560430 35.627583 35.696891 35.768746 35.843123 35.920432 36.000594
36.084034 36.170618 36.260783 36.354338 36.451727 36.552703 36.657711 36.766449
36.879361 36.996087 37.117068 37.241886 37.370975 37.503861 37.640968 37.781766
37.926667 38.075089 38.227428 38.383050 38.542337 38.704608 38.870224 39.038464
39.209669 39.383080 39.559019 39.736695 39.916411 40.097350 40.279797 40.462916
40.646975 40.831125 41.015622 41.199612 41.383336 41.565946 41.747673 41.927678
42.106186 42.282375 42.456465 42.627661 42.796177 42.961252 43.123096 43.280987
43.435131 43.584851 43.730352 43.871001 44.007001 44.137771 44.263508 44.383685
44.498491 44.607454 44.710755 44.807974 44.899282 44.984315 45.063227 45.135708
45.201896 45.261534 45.314740 45.361308 45.401333 45.434664 45.461367 45.481342
45.494631 45.501182 45.501011 45.494115 45.480480 45.460157 45.433102 45.399416
45.359030 45.312094 45.258515 45.198494 45.131916 45.059034 44.979712 44.894258
44.802517 44.704852 44.601094 44.491660 44.376369 44.255694 44.129444 43.998147
43.861606 43.720402 43.574332 43.424029 43.269288 43.110788 42.948322 42.782613
42.613453 42.441603 42.266850 42.089991 41.910808 41.730123 41.547714 41.364423
41.180018 40.995353 40.810187 40.625377 40.440671 40.256921 40.073861 39.892332
39.712051 39.533841 39.357400 39.183527 39.011900 38.843289 38.677350 38.514816
38.355326 38.199570 38.047169 37.898765 37.753964 37.613359 37.476538 37.344045
37.215454 37.091252 36.971006 36.855147 36.743232 36.635637 36.531916 36.432386
36.336599 36.244818 36.156596 36.072140 35.991009 35.913354 35.838744 35.767275
35.698530 35.632553 35.568942 35.507691 35.448418 35.391068 35.335283 35.280961
35.227770 35.175564 35.124044 35.073018 35.022222
35.400000 35.464323 35.528905 35.594043 35.659951 35.726967 35.795255 35.865187
35.936877 36.010726 36.086795 36.165512 36.246881 36.331353 36.418873 36.509910
36.604347 36.702670 36.804700 36.910929 37.021117 37.135762 37.254558 37.378006
37.505735 37.638242 37.775092 37.916776 38.062795 38.213629 38.368715 38.528523
38.692427 38.860881 39.033201 39.209821 39.390004 39.574163 39.761510 39.952436
40.146108 40.342896 40.541925 40.743543 40.946843 41.152153 41.358538 41.566307
41.774507 41.983429 42.192113 42.400831 42.608624 42.815752 43.021264 43.225409
43.427253 43.627039 43.823858 44.017946 44.208429 44.395541 44.578445 44.757374
44.931540 45.101171 45.265532 45.424848 45.578440 45.726529 45.868496 46.004557
46.134150 46.257485 46.374063 46.484081 46.587102 46.683308 46.772324 46.854314
46.928963 46.996414 47.056412 47.109074 47.154203 47.191891 47.221997 47.244583
47.259565 47.266973 47.266781 47.258986 47.243616 47.220640 47.190140 47.152053
47.106519 47.053444 46.993027 46.925147 46.850060 46.767620 46.678143 46.581464
46.477957 46.367440 46.250348 46.126483 45.996346 45.859725 45.717183 45.568501
45.414302 45.254362 45.089361 44.919075 44.744239 44.564624 44.381020 44.193197
44.001989 43.807165 43.609602 43.409063 43.206460 43.001551 42.795273 42.587378
42.378821 42.169343 41.959908 41.750244 41.541317 41.332839 41.125766 40.919793
40.715860 40.513641 40.314051 40.116744 39.922602 39.731257 39.543553 39.359098
39.178693 39.001923 38.829539 38.661107 38.497322 38.337733 38.182978 38.032587
37.887139 37.746150 37.610138 37.478609 37.352015 37.229857 37.112522 36.999508
36.891138 36.786910 36.687084 36.591162 36.499342 36.411132 36.326671 36.245479
36.167634 36.092673 36.020615 35.951020 35.883849 35.818685 35.755438 35.693720
35.633386 35.574082 35.515616 35.457668 35.400000
35.777778 35.849931 35.922396 35.995437 36.069409 36.144524 36.221180 36.299532
36.380012 36.462720 36.548120 36.636247 36.727594 36.822134 36.920379 37.022238
37.128241 37.238227 37.352740 37.471550 37.595208 37.723413 37.856720 37.994756
38.138075 38.286231 38.439774 38.598186 38.762005 38.930645 39.104630 39.283303
39.467173 39.655515 39.848818 40.046296 40.248414 40.454325 40.664472 40.877954
41.095189 41.315228 41.538463 41.763904 41.991918 42.221483 42.452943 42.685250
42.918727 43.152311 43.386306 43.619644 43.852613 44.084149 44.314527 44.542697
44.768926 44.992188 45.212742 45.429597 45.643006 45.852020 46.056891 46.256718
46.451751 46.641146 46.825150 47.002981 47.174883 47.340137 47.498984 47.650772
47.795735 47.933289 48.063659 48.186328 48.301508 48.408751 48.508250 48.599626
48.683050 48.758207 48.825246 48.883916 48.934335 48.976317 49.009949 49.035107
49.051843 49.060096 49.059882 49.051202 49.034036 49.008446 48.974378 48.931954
48.881086 48.821960 48.754456 48.678823 48.594914 48.503040 48.403030 48.295263
48.179544 48.056321 47.925381 47.787240 47.641673 47.489265 47.329778 47.163868
46.991291 46.812769 46.628054 46.437932 46.242154 46.041566 45.835919 45.626115
45.411901 45.194231 44.972849 44.748752 44.521679 44.292661 44.061432 43.829046
43.595228 43.361048 43.126218 42.891812 42.657528 42.424435 42.192211 41.961912
41.733194 41.507090 41.283232 41.062621 40.844864 40.630923 40.420379 40.214145
40.011781 39.814145 39.620771 39.432461 39.248727 39.070306 38.896691 38.728556
38.565372 38.407747 38.255138 38.108083 37.966029 37.829443 37.697765 37.571390
37.449758 37.333192 37.221135 37.113839 37.010753 36.912061 36.817223 36.726356
36.638936 36.555013 36.474085 36.396137 36.320692 36.247676 36.176640 36.107450
36.039693 35.973179 35.907532 35.842510 35.777778
36.155556 36.235762 36.316287 36.397502 36.479670 36.563208 36.648322 36.735469
36.824793 36.916789 37.011534 37.109556 37.210864 37.316012 37.424937 37.538215
37.655711 37.778015 37.904917 38.037020 38.174034 38.316569 38.464257 38.617708
38.776475 38.941164 39.111248 39.287325 39.468789 39.656225 39.848949 40.047528
40.251204 40.460522 40.674653 40.894118 41.118019 41.346851 41.579652 41.816891
42.057550 42.302067 42.549375 42.799884 43.052486 43.307564 43.563976 43.822082
44.080717 44.340218 44.599408 44.858605 45.116632 45.373790 45.628914 45.882291
46.132779 46.380657 46.624814 46.865524 47.101718 47.333668 47.560355 47.782049
47.997792 48.207852 48.411335 48.608509 48.798550 48.981724 49.157278 49.325474
49.485634 49.638011 49.782004 49.917852 50.045032 50.163765 50.273601 50.374742
50.466811 50.549984 50.623955 50.688870 50.744494 50.790940 50.828040 50.855871
50.874332 50.883463 50.883229 50.873630 50.854698 50.826393 50.788815 50.741885
50.685769 50.620354 50.545873 50.462179 50.369577 50.267890 50.157494 50.038185
49.910415 49.773958 49.629339 49.476318 49.315495 49.146618 48.970362 48.786468
48.595686 48.397751 48.193488 47.982628 47.766068 47.543538 47.315998 47.083179
46.846101 46.604494 46.359429 46.110632 45.859217 45.604908 45.348849 45.090756
44.831797 44.571674 44.311567 44.051163 43.791643 43.532672 43.275423 43.019538
42.766166 42.514927 42.266939 42.021793 41.780567 41.542823 41.309592 41.080407
40.856242 40.636605 40.422406 40.213125 40.009608 39.811310 39.619005 39.432127
39.251377 39.076169 38.907128 38.743655 38.586298 38.434448 38.288572 38.148058
38.013295 37.883670 37.759495 37.640160 37.525901 37.416118 37.310973 37.209879
37.112925 37.019544 36.929754 36.843014 36.759271 36.678015 36.599128 36.522133
36.446851 36.372843 36.299871 36.227540 36.155556
36.533333 36.621809 36.710664 36.800220 36.890908 36.982988 37.076940 37.172958
37.271563 37.372881 37.477471 37.585385 37.697213 37.812932 37.933158 38.057788
38.187460 38.321988 38.462026 38.607305 38.758485 38.915214 39.078156 39.246871
39.422021 39.603080 39.790703 39.984275 40.184440 40.390497 40.603073 40.821383
41.046031 41.276154 41.512327 41.753612 42.000556 42.252146 42.508902 42.769744
43.035158 43.304007 43.576746 43.852185 44.130749 44.411208 44.693957 44.977735
45.262910 45.548204 45.833959 46.118892 46.403326 46.685981 46.967167 47.245621
47.521643 47.794000 48.062983 48.327402 48.587546 48.842274 49.091874 49.335269
49.572745 49.803294 50.027203 50.243537 50.452583 50.653486 50.846530 51.030941
51.206998 51.374008 51.532240 51.681086 51.820798 51.950851 52.071476 52.182229
52.283316 52.374371 52.455570 52.526623 52.587672 52.638502 52.679216 52.709671
52.729930 52.739923 52.739668 52.729167 52.708397 52.677427 52.636193 52.584837
52.523254 52.451657 52.369904 52.278283 52.176616 52.065270 51.944035 51.813357
51.673002 51.523494 51.364581 51.196870 51.020092 50.834939 50.641131 50.439443
50.229590 50.012427 49.787669 49.556250 49.317882 49.073577 48.823047 48.567371
48.306265 48.040868 47.770894 47.497536 47.220505 46.941035 46.658829 46.375156
46.089705 45.803764 45.517009 45.230733 44.944593 44.659875 44.376214 44.094878
43.815475 43.539245 43.265765 42.996235 42.730202 42.468817 42.211594 41.959627
41.712397 41.470934 41.234689 41.004619 40.780148 40.562156 40.350042 40.144608
39.945227 39.752619 39.566141 39.386429 39.212824 39.045876 38.884921 38.730421
38.581707 38.439158 38.302107 38.170849 38.044722 37.923940 37.807854 37.696595
37.589535 37.486727 37.387565 37.292026 37.199534 37.109993 37.022862 36.937975
36.854831 36.773198 36.692619 36.612800 36.533333
36.911111 37.008118 37.105508 37.203724 37.303084 37.404086 37.506979 37.612309
37.720253 37.831399 37.945848 38.064224 38.186548 38.313476 38.444943 38.581632
38.723389 38.870916 39.023972 39.183270 39.348477 39.520312 39.698349 39.883308
40.074670 40.273146 40.478124 40.690306 40.908982 41.134839 41.367076 41.606355
41.851786 42.104006 42.362038 42.626487 42.896297 43.172039 43.452579 43.738455
44.028465 44.323110 44.621129 44.922986 45.227371 45.534713 45.843663 46.154620
46.466205 46.778791 47.090985 47.403134 47.713847 48.023451 48.330568 48.635510
48.936927 49.235122 49.528783 49.818210 50.102143 50.380879 50.653220 50.919468
51.178493 51.430599 51.674737 51.911212 52.139059 52.358584 52.568909 52.770336
52.962079 53.144431 53.316698 53.479159 53.631209 53.773110 53.904345 54.025152
54.135098 54.234393 54.322687 54.400153 54.466523 54.521933 54.566189 54.599386
54.621407 54.632300 54.632026 54.620585 54.598012 54.564261 54.519443 54.463467
54.396520 54.318467 54.229576 54.129670 54.019099 53.897651 53.765758 53.623181
53.470437 53.307260 53.134259 52.951149 52.758627 52.556397 52.345246 52.124873
51.896153 51.658782 51.413725 51.160677 50.900688 50.633455 50.360108 50.080347
49.795373 49.504887 49.210154 48.910874 48.608366 48.302323 47.994105 47.683397
47.371586 47.058344 46.745071 46.431421 46.118793 45.806819 45.496884 45.188593
44.883305 44.580591 44.281775 43.986394 43.695721 43.409258 43.128220 42.852073
42.581964 42.317324 42.059226 41.807067 41.561841 41.322913 41.091192 40.866016
40.648206 40.437077 40.233360 40.036350 39.846686 39.663652 39.487792 39.318384
39.155879 38.999553 38.849765 38.705797 38.567917 38.435416 38.308474 38.186400
38.069288 37.956467 37.847948 37.743091 37.641825 37.543543 37.448100 37.354927
37.263806 37.174213 37.085861 36.998279 36.911111
37.288889 37.394675 37.500909 37.607974 37.716380 37.826438 37.938712 38.053438
38.171228 38.292237 38.417122 38.545953 38.679421 38.817509 38.960939 39.109601
39.264239 39.424650 39.591593 39.764768 39.944945 40.131721 40.325872 40.526894
40.735558 40.951258 41.174756 41.405344 41.643766 41.889216 42.142415 42.402457
42.670036 42.944152 43.225466 43.512886 43.807039 44.106746 44.412596 44.723332
45.039502 45.359780 45.684675 46.012798 46.344619 46.678702 47.015480 47.353481
47.693102 48.032850 48.373094 48.712331 49.050909 49.387331 49.721926 50.053218
50.381527 50.705413 51.025188 51.339463 51.648548 51.951118 52.247484 52.536394
52.818164 53.091624 53.357094 53.613495 53.861148 54.099070 54.327583 54.545798
54.754035 54.951503 55.138512 55.314369 55.479368 55.632912 55.775274 55.905948
56.025179 56.132552 56.228277 56.312025 56.383967 56.443858 56.491823 56.527702
56.551568 56.563342 56.563048 56.550687 56.526230 56.489757 56.441191 56.380692
56.308132 56.223755 56.127390 56.019361 55.899460 55.768098 55.625031 55.470762
55.305017 55.128393 54.940594 54.742313 54.533239 54.314162 54.084762 53.845929
53.597337 53.339973 53.073515 52.799042 52.516235 52.226266 51.928818 51.625146
51.314939 50.999526 50.678598 50.353546 50.024061 49.691587 49.355805 49.018198
48.678437 48.338027 47.996620 47.655730 47.314986 46.975894 46.638057 46.302956
45.970163 45.641124 45.315373 44.994309 44.677427 44.366068 44.059685 43.759550
43.465079 43.177465 42.896085 42.622049 42.354696 42.095048 41.842411 41.597713
41.360233 41.130800 40.908670 40.694573 40.487749 40.288828 40.097035 39.912903
39.735652 39.565712 39.402307 39.245769 39.095327 38.951218 38.812686 38.679874
38.552045 38.429251 38.310784 38.196607 38.086044 37.978975 37.874765 37.773210
37.673722 37.576022 37.479572 37.384021 37.288889
37.666667 37.781526 37.896835 38.013112 38.130734 38.250280 38.372047 38.496671
38.624367 38.755817 38.891148 39.031086 39.175664 39.325643 39.480961 39.642405
39.809813 39.983995 40.164684 40.352704 40.547682 40.750449 40.960525 41.178737
41.404498 41.638628 41.880430 42.130707 42.388654 42.655053 42.928992 43.211225
43.500734 43.798239 44.102624 44.414570 44.732864 45.058148 45.389117 45.726371
46.068526 46.416133 46.767740 47.123855 47.482962 47.845529 48.209995 48.576787
48.944312 49.312963 49.681128 50.049173 50.415486 50.780410 51.142348 51.501628
51.856685 52.207837 52.553568 52.894194 53.228259 53.556082 53.876282 54.189183
54.493489 54.789532 55.076110 55.353562 55.620786 55.878123 56.124579 56.360493
56.584976 56.798364 56.999872 57.189824 57.367539 57.533323 57.686595 57.827634
57.955958 58.071811 58.174805 58.265145 58.342531 58.407124 58.458711 58.497402
58.523069 58.535767 58.535455 58.522130 58.495834 58.456510 58.404283 58.339042
58.260997 58.169987 58.066310 57.949758 57.820720 57.678947 57.524922 57.358365
57.179854 56.989082 56.786731 56.572475 56.347097 56.110262 55.862859 55.604546
55.336319 55.057838 54.770203 54.473076 54.167661 53.853626 53.532270 53.203267
52.868002 52.526158 52.179193 51.826792 51.470478 51.109932 50.746725 50.380531
50.012954 49.643651 49.274244 48.904369 48.535647 48.167686 47.802090 47.438434
47.078291 46.721197 46.368680 46.020232 45.677324 45.339405 45.007875 44.682138
44.363514 44.051366 43.746924 43.449510 43.160260 42.878457 42.605140 42.339555
42.082639 41.833610 41.593299 41.360900 41.137138 40.921191 40.713676 40.513760
40.321952 40.137419 39.960562 39.790552 39.627687 39.471147 39.321130 39.176833
39.038355 38.904920 38.776529 38.652438 38.532557 38.416180 38.303129 38.192744
38.084762 37.978575 37.873842 37.770011 37.666667
38.044444 38.168653 38.293383 38.419081 38.546337 38.675516 38.807271 38.941881
39.080053 39.221977 39.368406 39.519433 39.675854 39.837660 40.005681 40.179803
40.360882 40.548695 40.744115 40.946810 41.157662 41.376224 41.603380 41.838569
42.082668 42.335000 42.596429 42.866160 43.145036 43.432147 43.728308 44.032496
44.345490 44.666157 44.995237 45.331490 45.675614 46.026268 46.384102 46.747683
47.117612 47.492375 47.872522 48.256468 48.644716 49.035621 49.429642 49.825091
50.222385 50.619810 51.017748 51.414475 51.810345 52.203642 52.594700 52.981829
53.365351 53.743619 54.116951 54.483759 54.844364 55.197252 55.542750 55.879432
56.207636 56.526033 56.834970 57.133227 57.421157 57.697652 57.963071 58.216418
58.458053 58.687093 58.903892 59.107679 59.298791 59.476569 59.641325 59.792506