# vtk DataFile Version 3.0
Steady-state temperature (Jacobi)
ASCII
DATASET STRUCTURED_POINTS
DIMENSIONS 181 181 1
ORIGIN 0.0 0.0 0.0
SPACING 0.05 0.05 1.0
POINT_DATA 32761
SCALARS Temperature float 1
LOOKUP_TABLE default
32.000000 32.000000 32.000000 32.000000 32.000000 32.000000 32.000000 32.000000
32.000000 32.000000 32.000000 32.000000 32.000000 32.000000 32.000000 32.000000
32.000000 32.000000 32.000000 32.000000 32.000000 32.000000 32.000000 32.000000
32.000000 32.000000 32.000000 32.000000 32.000000 32.000000 32.000000 32.000000
32.000000 32.000000 32.000000 32.000000 32.000000 32.000000 32.000000 32.000000
32.000000 32.000000 32.000000 32.000000 32.000000 32.000000 32.000000 32.000000
32.000000 32.000000 32.000000 32.000000 32.000000 32.000000 32.000000 32.000000
32.000000 32.000000 32.000000 32.000000 32.000000 32.000000 32.000000 32.000000
32.000000 32.000000 32.000000 32.000000 32.000000 32.000000 32.000000 32.000000
32.000000 32.000000 32.000000 32.000000 32.000000 32.000000 32.000000 32.000000
32.000000 32.000000 32.000000 32.000000 32.000000 32.000000 32.000000 32.000000
32.000000 32.000000 32.000000 32.000000 32.000000 32.000000 32.000000 32.000000
32.000000 32.000000 32.000000 32.000000 32.000000 32.000000 32.000000 32.000000
32.000000 32.000000 32.000000 32.000000 32.000000 32.000000 32.000000 32.000000
32.000000 32.000000 32.000000 32.000000 32.000000 32.000000 32.000000 32.000000
32.000000 32.000000 32.000000 32.000000 32.000000 32.000000 32.000000 32.000000
32.000000 32.000000 32.000000 32.000000 32.000000 32.000000 32.000000 32.000000
32.000000 32.000000 32.000000 32.000000 32.000000 32.000000 32.000000 32.000000
32.000000 32.000000 32.000000 32.000000 32.000000 32.000000 32.000000 32.000000
32.000000 32.000000 32.000000 32.000000 32.000000 32.000000 32.000000 32.000000
32.000000 32.000000 32.000000 32.000000 32.000000 32.000000 32.000000 32.000000
32.000000 32.000000 32.000000 32.000000 32.000000 32.000000 32.000000 32.000000
32.000000 32.000000 32.000000 32.000000 32.000000
32.377778 32.401572 32.425378 32.449209 32.473076 32.496993 32.520968 32.545017
32.569147 32.593372 32.617699 32.642142 32.666704 32.691401 32.716233 32.741215
32.766346 32.791640 32.817091 32.842714 32.868501 32.894466 32.920596 32.946905
32.973378 33.000025 33.026830 33.053802 33.080920 33.108192 33.135593 33.163131
33.190777 33.218537 33.246379 33.274306 33.302286 33.330318 33.358367 33.386430
33.414471 33.442486 33.470434 33.498311 33.526074 33.553717 33.581197 33.608506
33.635599 33.662469 33.689069 33.715392 33.741392 33.767059 33.792349 33.817253
33.841727 33.865761 33.889314 33.912377 33.934909 33.956903 33.978321 33.999154
34.019369 34.038958 34.057889 34.076156 34.093731 34.110609 34.126763 34.142190
34.156867 34.170791 34.183942 34.196318 34.207902 34.218694 34.228678 34.237854
34.246210 34.253746 34.260453 34.266331 34.271372 34.275577 34.278941 34.281464
34.283144 34.283980 34.283971 34.283118 34.281422 34.278882 34.275501 34.271280
34.266223 34.260331 34.253611 34.246062 34.237694 34.228507 34.218514 34.207715
34.196125 34.183744 34.170591 34.156667 34.141992 34.126570 34.110423 34.093556
34.075994 34.057743 34.038832 34.019267 33.999080 33.978278 33.956897 33.934944
33.912457 33.889446 33.865950 33.841978 33.817573 33.792745 33.767537 33.741959
33.716056 33.689838 33.663350 33.636602 33.609638 33.582468 33.555137 33.527653
33.500059 33.472362 33.444604 33.416791 33.388964 33.361126 33.333316 33.305536
33.277821 33.250172 33.222622 33.195169 33.167844 33.140642 33.113592 33.086687
33.059952 33.033379 33.006989 32.980773 32.954750 32.928906 32.903259 32.877795
32.852526 32.827438 32.802540 32.777817 32.753276 32.728900 32.704693 32.680638
32.656736 32.632970 32.609339 32.585825 32.562424 32.539120 32.515906 32.492766
32.469692 32.446667 32.423683 32.400724 32.377778
32.755556 32.803153 32.850775 32.898445 32.946190 32.994030 33.041994 33.090098
33.138372 33.186828 33.235498 33.284388 33.333531 33.382929 33.432614 33.482582
33.532866 33.583456 33.634384 33.685634 33.737235 33.789168 33.841458 33.894080
33.947056 34.000356 34.054000 34.107949 34.162220 34.216770 34.271611 34.326693
34.382025 34.437552 34.493278 34.549142 34.605144 34.661218 34.717360 34.773499
34.829627 34.885668 34.941612 34.997377 35.052951 35.108250 35.163258 35.217889
35.272124 35.325876 35.379125 35.431783 35.483829 35.535176 35.585802 35.635621
35.684612 35.732692 35.779840 35.825975 35.871079 35.915076 35.957947 35.999621
36.040084 36.079268 36.117161 36.153701 36.188877 36.222636 36.254968 36.285825
36.315199 36.343049 36.369369 36.394122 36.417306 36.438889 36.458869 36.477221
36.493943 36.509015 36.522437 36.534191 36.544280 36.552690 36.559421 36.564468
36.567828 36.569500 36.569483 36.567777 36.564382 36.559302 36.552538 36.544096
36.533977 36.522194 36.508744 36.493647 36.476901 36.458529 36.438530 36.416932
36.393736 36.368975 36.342650 36.314800 36.285430 36.254583 36.222265 36.188527
36.153377 36.116870 36.079017 36.039881 35.999473 35.957863 35.915064 35.871150
35.826138 35.780105 35.733071 35.685117 35.636263 35.586595 35.536133 35.484965
35.433112 35.380663 35.327639 35.274130 35.220155 35.165803 35.111092 35.056110
35.000874 34.945468 34.889905 34.834269 34.778568 34.722882 34.667216 34.611646
34.556172 34.500866 34.445723 34.390810 34.336119 34.281710 34.227571 34.173756
34.120250 34.067099 34.014286 33.961850 33.909770 33.858081 33.806756 33.755825
33.705260 33.655081 33.605260 33.555813 33.506707 33.457952 33.409517 33.361404
33.313581 33.266046 33.218766 33.171734 33.124917 33.078304 33.031863 32.985578
32.939417 32.893362 32.847382 32.801456 32.755556
33.133333 33.204752 33.276207 33.347738 33.419376 33.491164 33.563129 33.635316
33.707745 33.780463 33.853485 33.926858 34.000589 34.074727 34.149272 34.224270
34.299713 34.375648 34.452058 34.528987 34.606409 34.684366 34.762823 34.841818
34.921308 35.001325 35.081817 35.162812 35.244248 35.326149 35.408442 35.491146
35.574180 35.657555 35.741183 35.825068 35.909112 35.993316 36.077573 36.161877
36.246115 36.330275 36.414239 36.497988 36.581399 36.664450 36.747012 36.829061
36.910464 36.991194 37.071118 37.150205 37.228324 37.305442 37.381428 37.456252
37.529784 37.601994 37.672757 37.742046 37.809741 37.875815 37.940156 38.002741
38.063466 38.122308 38.179173 38.234043 38.286830 38.337521 38.386037 38.432368
38.476444 38.518258 38.557749 38.594913 38.629697 38.662099 38.692075 38.719625
38.744713 38.767338 38.787473 38.805118 38.820252 38.832876 38.842975 38.850549
38.855591 38.858100 38.858075 38.855514 38.850421 38.842797 38.832649 38.819977
38.804798 38.787109 38.766933 38.744269 38.719147 38.691566 38.661562 38.629137
38.594336 38.557159 38.517662 38.475848 38.431778 38.385462 38.336967 38.286307
38.233560 38.178739 38.121934 38.063163 38.002522 37.940032 37.875800 37.809849
37.742292 37.673158 37.602565 37.530543 37.457218 37.382621 37.306881 37.230031
37.152202 37.073428 36.993843 36.913476 36.832463 36.750831 36.668716 36.586140
36.503237 36.420026 36.336635 36.253081 36.169484 36.085858 36.002317 35.918867
35.835617 35.752567 35.669817 35.587361 35.505291 35.423595 35.342356 35.261556
35.181269 35.101470 35.022225 34.943503 34.865361 34.787763 34.710756 34.634300
34.558433 34.483111 34.408362 34.334141 34.260466 34.187288 34.114619 34.042408
33.970658 33.899318 33.828382 33.757800 33.687559 33.617609 33.547930 33.478473
33.409215 33.340106 33.271118 33.202206 33.133333
33.511111 33.606378 33.701697 33.797111 33.892676 33.988432 34.084438 34.180724
34.277352 34.374347 34.471771 34.569639 34.668015 34.766904 34.866370 34.966408
35.067079 35.168368 35.270335 35.372953 35.476277 35.580269 35.684980 35.790361
35.896457 36.003204 36.110645 36.218702 36.327410 36.436680 36.546539 36.656886
36.767741 36.878988 36.990642 37.102575 37.214791 37.327155 37.439661 37.552164
37.664650 37.776965 37.889090 38.000860 38.112251 38.223093 38.333354 38.442860
38.551576 38.659324 38.766065 38.871622 38.975953 39.078881 39.180363 39.280227
39.378430 39.474804 39.569308 39.661780 39.752181 39.840360 39.926280 40.009799
40.090885 40.169404 40.245332 40.318547 40.389026 40.456659 40.521432 40.583244
40.642084 40.697867 40.750583 40.800158 40.846588 40.889809 40.929819 40.966566
41.000049 41.030225 41.057097 41.080631 41.100827 41.117663 41.131140 41.141242
41.147970 41.151317 41.151282 41.147868 41.141072 41.130903 41.117361 41.100462
41.080205 41.056614 41.029687 40.999460 40.965930 40.929142 40.889096 40.845845
40.799391 40.749800 40.697075 40.641293 40.582461 40.520668 40.455925 40.388332
40.317906 40.244758 40.168910 40.090486 40.009511 39.926120 39.840345 39.752331
39.662113 39.569847 39.475571 39.379448 39.281521 39.181958 39.080804 38.978234
38.874290 38.769152 38.662861 38.555598 38.447402 38.338452 38.228786 38.118579
38.007864 37.896813 37.785451 37.673944 37.562313 37.450715 37.339163 37.227806
37.116648 37.005828 36.895344 36.785323 36.675753 36.566752 36.458298 36.350496
36.243319 36.136859 36.031080 35.926061 35.821760 35.718245 35.615466 35.513478
35.412226 35.311753 35.212001 35.112999 35.014685 34.917077 34.820111 34.723794
34.628060 34.532905 34.438262 34.344118 34.250406 34.157105 34.064148 33.971505
33.879112 33.786932 33.694903 33.602982 33.511111
33.888889 34.008042 34.127256 34.246597 34.366118 34.485891 34.605960 34.726402
34.847250 34.968584 35.090428 35.212862 35.335897 35.459616 35.584017 35.709181
35.835093 35.961831 36.089368 36.217777 36.347016 36.477155 36.608136 36.740022
36.872741 37.006349 37.140757 37.276014 37.412017 37.548803 37.686254 37.824399
37.963103 38.102387 38.242099 38.382251 38.522677 38.663377 38.804175 38.945058
39.085838 39.226495 39.366829 39.506812 39.646234 39.785058 39.923071 40.060228
40.196310 40.331268 40.464880 40.597094 40.727690 40.856611 40.983640 41.108722
41.231644 41.352351 41.470638 41.586454 41.699602 41.810035 41.917567 42.022158
42.123633 42.221957 42.316970 42.408643 42.496830 42.581509 42.662549 42.739932
42.813544 42.883372 42.949317 43.011370 43.069446 43.123541 43.173583 43.219572
43.261447 43.299211 43.332816 43.362265 43.387522 43.408589 43.425441 43.438081
43.446495 43.450682 43.450640 43.446367 43.437870 43.425146 43.408213 43.387067
43.361735 43.332214 43.298542 43.260714 43.218781 43.172741 43.122654 43.068521
43.010416 42.948343 42.882388 42.812560 42.738959 42.661600 42.580597 42.495970
42.407849 42.316259 42.221346 42.123141 42.021805 41.917374 41.810024 41.699796
41.586879 41.471320 41.353318 41.232924 41.110348 40.985643 40.859025 40.730549
40.600438 40.468746 40.335698 40.201345 40.065914 39.929453 39.792184 39.654153
39.515576 39.376492 39.237112 39.097465 38.957755 38.818002 38.678398 38.538955
38.399853 38.261093 38.122843 37.985092 37.847995 37.711531 37.575839 37.440888
37.306801 37.173539 37.041209 36.909762 36.779289 36.649733 36.521170 36.393536
36.266890 36.141161 36.016395 35.892516 35.769553 35.647427 35.526154 35.405651
35.285921 35.166879 35.048515 34.930746 34.813548 34.696838 34.580583 34.464702
34.349152 34.233855 34.118759 34.003790 33.888889
34.266667 34.409749 34.552908 34.696213 34.839747 34.983569 35.127767 35.272391
35.417534 35.563230 35.709577 35.856596 36.004384 36.152950 36.302389 36.452694
36.603959 36.756162 36.909392 37.063608 37.218897 37.375199 37.532594 37.691006
37.850504 38.010994 38.172538 38.335021 38.498495 38.662827 38.828058 38.994036
39.160789 39.328147 39.496128 39.664542 39.833395 40.002482 40.171795 40.341114
40.510419 40.679477 40.848257 41.016514 41.184206 41.351080 41.517085 41.681960
41.845649 42.007884 42.168606 42.327545 42.484638 42.639619 42.792421 42.942783
43.090640 43.235739 43.378015 43.517227 43.653315 43.786048 43.915373 44.041074
44.163104 44.281263 44.395512 44.505668 44.611699 44.713440 44.810867 44.903832
44.992320 45.076200 45.155462 45.229995 45.299793 45.364761 45.424897 45.480124
45.530442 45.575789 45.616166 45.651526 45.681870 45.707164 45.727411 45.742587
45.752695 45.757723 45.757672 45.752542 45.742334 45.727059 45.706716 45.681328
45.650893 45.615448 45.574989 45.529568 45.479180 45.423892 45.363702 45.298690
45.228858 45.154301 45.075027 44.991147 44.902673 44.809737 44.712355 44.610676
44.504725 44.394669 44.280541 44.162525 44.040661 43.915152 43.786046 43.653560
43.517749 43.378846 43.236910 43.092189 42.944746 42.794836 42.642527 42.488083
42.331570 42.173259 42.013213 41.851705 41.688796 41.524757 41.359644 41.193724
41.027045 40.859867 40.692231 40.524387 40.356365 40.188403 40.020522 39.852945
39.685681 39.518938 39.352711 39.187194 39.022368 38.858410 38.695288 38.533161
38.371984 38.211898 38.052848 37.894953 37.738150 37.582538 37.428045 37.274750
37.122573 36.971577 36.821672 36.672903 36.525177 36.378521 36.232836 36.088134
35.944314 35.801370 35.659200 35.517786 35.377026 35.236886 35.097267 34.958122
34.819356 34.680911 34.542696 34.404643 34.266667
34.644444 34.811511 34.978664 35.145996 35.313583 35.481527 35.649890 35.818779
35.988245 36.158397 36.329271 36.500980 36.673543 36.847071 37.021568 37.197143
37.373780 37.551588 37.730529 37.910707 38.092064 38.274697 38.458528 38.643644
38.829946 39.017511 39.206218 39.396133 39.587113 39.779210 39.972260 40.166301
40.361148 40.556825 40.753124 40.950057 41.147393 41.345132 41.543024 41.741052
41.938951 42.136691 42.333991 42.530807 42.726849 42.922060 43.116139 43.309022
43.500399 43.690200 43.878113 44.064061 44.247732 44.429048 44.607700 44.783610
44.956475 45.126219 45.292552 45.455400 45.614487 45.769745 45.920914 46.067933
46.210561 46.348745 46.482263 46.611073 46.734972 46.853927 46.967758 47.076439
47.179812 47.277860 47.370444 47.457554 47.539072 47.614995 47.685222 47.749754
47.808510 47.861491 47.908635 47.949945 47.985372 48.014921 48.038558 48.056286
48.068086 48.073960 48.073901 48.067909 48.055993 48.038150 48.014401 47.984743
47.949211 47.907802 47.860564 47.807495 47.748661 47.684057 47.613769 47.537795
47.456237 47.369099 47.276501 47.178455 47.075099 46.966451 46.852674 46.733791
46.609986 46.481293 46.347917 46.209899 46.067467 45.920672 45.769759 45.614789
45.456025 45.293537 45.127603 44.958298 44.785916 44.610535 44.432459 44.251768
44.068775 43.883559 43.696435 43.507482 43.317016 43.125107 42.932071 42.737971
42.543113 42.347554 42.151590 41.955266 41.758865 41.562420 41.366200 41.170222
40.974741 40.779757 40.585507 40.391977 40.199382 40.007694 39.817108 39.627582
39.439287 39.252167 39.066372 38.881834 38.698680 38.516830 38.336388 38.157264
37.979542 37.803121 37.628063 37.454262 37.281759 37.110442 36.940331 36.771311
36.603384 36.436431 36.270437 36.105283 35.940937 35.777282 35.614270 35.451787
35.289771 35.128113 34.966738 34.805544 34.644444
35.022222 35.213333 35.404547 35.595957 35.787676 35.979784 36.172401 36.365593
36.559483 36.754123 36.949639 37.146065 37.343529 37.542044 37.741739 37.942606
38.144771 38.348205 38.553028 38.759188 38.966800 39.175786 39.386254 39.598101
39.811423 40.026094 40.242196 40.459579 40.678311 40.898215 41.119346 41.341501
41.564717 41.788769 42.013677 42.239191 42.465314 42.691775 42.918560 43.145375
43.372192 43.598697 43.824848 44.050315 44.275041 44.498684 44.721175 44.942162
45.161566 45.379031 45.594468 45.807522 46.018099 46.225844 46.430664 46.632209
46.830388 47.024860 47.215539 47.402098 47.584456 47.762304 47.935569 48.103961
48.267417 48.425671 48.578668 48.726165 48.868120 49.004314 49.134714 49.259126
49.377528 49.489751 49.595779 49.695469 49.788812 49.875686 49.956089 50.029919
50.097181 50.157790 50.211753 50.259006 50.299554 50.333352 50.360404 50.380680
50.394185 50.400903 50.400836 50.393984 50.380347 50.359941 50.332761 50.298840
50.258173 50.210808 50.156738 50.096030 50.028679 49.954768 49.874295 49.787364
49.693976 49.594256 49.488212 49.375992 49.257609 49.133237 49.002898 48.866788
48.724941 48.577578 48.424743 48.266681 48.103448 47.935312 47.762339 47.584821
47.402833 47.216686 47.026463 46.832494 46.634867 46.433926 46.229764 46.022734
45.812932 45.600716 45.386179 45.169685 44.951321 44.731449 44.510149 44.287777
44.064403 43.840375 43.615750 43.390864 43.165759 42.940755 42.715879 42.491433
42.267429 42.044145 41.821577 41.599982 41.379337 41.159877 40.941561 40.724598
40.508933 40.294749 40.081974 39.870767 39.661042 39.452932 39.246337 39.041366
38.837908 38.636047 38.435663 38.236815 38.039376 37.843382 37.648701 37.455345
37.263180 37.072198 36.882262 36.693344 36.505309 36.318109 36.131612 35.945755
35.760409 35.575494 35.390890 35.206504 35.022222
35.400000 35.615226 35.830563 36.046134 36.262038 36.478406 36.695321 36.912922
37.131275 37.350524 37.570715 37.791994 38.014387 38.238041 38.462959 38.689287
38.917003 39.146247 39.376976 39.609320 39.843211 40.078771 40.315902 40.554718
40.795092 41.037124 41.280659 41.525782 41.772310 42.020312 42.269575 42.520150
42.771796 43.024546 43.278131 43.532565 43.787553 44.043088 44.298852 44.554819
44.810647 45.066293 45.321395 45.575894 45.829412 46.081872 46.332886 46.582364
46.829908 47.075420 47.318497 47.559035 47.796629 48.031172 48.262267 48.489804
48.713396 48.932938 49.148054 49.358645 49.564355 49.765093 49.960523 50.150565
50.334907 50.513481 50.686002 50.852413 51.012457 51.166089 51.313081 51.453399
51.586843 51.713391 51.832868 51.945264 52.050430 52.148361 52.238933 52.322149
52.397907 52.466212 52.526985 52.580231 52.625892 52.663974 52.694435 52.717281
52.732487 52.740056 52.739982 52.732263 52.716909 52.693918 52.663315 52.625096
52.579303 52.525930 52.465039 52.396624 52.320766 52.237460 52.146811 52.048815
51.943601 51.831171 51.711678 51.585132 51.451713 51.311439 51.164518 51.010980
50.851059 50.684799 50.512461 50.334102 50.150012 49.960259 49.765158 49.564792
49.359498 49.149370 48.934768 48.715793 48.492823 48.265965 48.035611 47.801872
47.565150 47.325554 47.083493 46.839072 46.592699 46.344474 46.094801 45.843769
45.591775 45.338894 45.085510 44.831684 44.577785 44.323854 44.070241 43.816971
43.564370 43.312444 43.061494 42.811506 42.562757 42.315212 42.069120 41.824426
41.581353 41.339827 41.100040 40.861905 40.625583 40.390971 40.158203 39.927160
39.697950 39.470442 39.244715 39.020630 38.798239 38.577395 38.358126 38.140279
37.923857 37.708705 37.494803 37.281996 37.070241 36.859386 36.649368 36.440039
36.231319 36.023064 35.815178 35.607527 35.400000
35.777778 36.017192 36.256738 36.496532 36.736719 36.977400 37.218726 37.460782
37.703726 37.947621 38.192630 38.438794 38.686278 38.935099 39.185420 39.437233
39.690697 39.945777 40.202627 40.461182 40.721587 40.983749 41.247799 41.513616
41.781317 42.050748 42.322011 42.594920 42.869560 43.145712 43.423442 43.702500
43.982930 44.264450 44.547085 44.830521 45.114761 45.399464 45.684610 45.969831
46.255086 46.539983 46.824463 47.108113 47.390854 47.672258 47.952229 48.230328
48.506447 48.780138 49.051284 49.319435 49.584468 49.845936 50.103714 50.357363
50.606761 50.851481 51.091407 51.326130 51.555541 51.779255 51.997174 52.208938
52.414463 52.613417 52.805729 52.991098 53.169468 53.340570 53.504362 53.660605
53.809271 53.950153 54.083234 54.208336 54.325454 54.434436 54.535284 54.627875
54.712214 54.788203 54.855850 54.915080 54.965900 55.008257 55.042158 55.067567
55.084490 55.092909 55.092826 55.084243 55.067158 55.041589 55.007532 54.965023
54.914057 54.854689 54.786911 54.710802 54.626352 54.533664 54.432731 54.323679
54.206508 54.081370 53.948272 53.807394 53.658755 53.502563 53.338849 53.167854
52.989620 52.804420 52.612312 52.413599 52.208354 51.996912 51.779359 51.556059
51.327110 51.092904 50.853549 50.609459 50.360751 50.107858 49.850903 49.590330
49.326265 49.059162 48.789143 48.516666 48.241848 47.965143 47.686660 47.406846
47.125796 46.843946 46.561375 46.278502 45.995388 45.712432 45.429675 45.147492
44.865903 44.585256 44.305548 44.027101 43.749889 43.474202 43.199994 42.927522
42.656720 42.387814 42.120715 41.855620 41.592421 41.331281 41.072079 40.814944
40.559740 40.306566 40.055275 39.805937 39.558392 39.312681 39.068640 38.826283
38.585438 38.346093 38.108077 37.871351 37.635746 37.401200 37.167546 36.934702
36.702506 36.470858 36.239603 36.008625 35.777778
36.155556 36.419245 36.683072 36.947191 37.211723 37.476832 37.742622 38.009264
38.276842 38.545533 38.815397 39.086614 39.359220 39.633395 39.909146 40.186652
40.465890 40.747034 41.030032 41.315046 41.601994 41.891028 42.182031 42.475141
42.770208 43.067352 43.366389 43.667421 43.970227 44.274890 44.581151 44.889073
45.198361 45.509054 45.820825 46.133685 46.447276 46.761586 47.076223 47.391153
47.705956 48.020573 48.334561 48.647838 48.959942 49.270771 49.579846 49.887050
50.191892 50.494243 50.793607 51.089846 51.382463 51.671318 51.955920 52.236128
52.511462 52.781787 53.046642 53.305897 53.559116 53.806179 54.046678 54.280508
54.507289 54.726933 54.939094 55.143700 55.340439 55.529257 55.709876 55.882258
56.046161 56.201560 56.348247 56.486211 56.615275 56.735436 56.846549 56.948618
57.041525 57.125279 57.199786 57.265059 57.321027 57.367701 57.405032 57.433029
57.451664 57.460941 57.460851 57.451395 57.432584 57.404412 57.366911 57.320072
57.263946 57.198522 57.123873 57.039987 56.946961 56.844786 56.733582 56.613344
56.484224 56.346221 56.199517 56.044124 55.880252 55.707928 55.527396 55.338696
55.142108 54.937689 54.725754 54.506374 54.279903 54.046427 53.806333 53.559724
53.307016 53.048328 52.784103 52.514470 52.239896 51.960520 51.676825 51.388954
51.097403 50.802315 50.504194 50.203176 49.899767 49.594095 49.286660 48.977578
48.667337 48.356038 48.044152 47.731761 47.419316 47.106876 46.794869 46.483330
46.172659 45.862865 45.554319 45.247006 44.941261 44.637047 44.334664 44.034049
43.735470 43.438841 43.144392 42.852016 42.561909 42.273944 41.988281 41.704778
41.423559 41.144467 40.867594 40.592769 40.320051 40.049263 39.780431 39.513371
39.248080 38.984371 38.722213 38.461416 38.201926 37.943555 37.686222 37.429745
37.174022 36.918878 36.664192 36.409797 36.155556
36.533333 36.821383 37.109594 37.398109 37.687103 37.976701 38.267087 38.558367
38.850731 39.144260 39.439151 39.735457 40.033377 40.332937 40.634332 40.937559
41.242808 41.550043 41.859447 42.170950 42.484724 42.800663 43.118925 43.439366
43.762130 44.087034 44.414200 44.743410 45.074763 45.408000 45.743199 46.080061
46.418638 46.758592 47.099950 47.442337 47.785752 48.129784 48.474405 48.819173
49.164031 49.508508 49.852524 50.195581 50.537576 50.877990 51.216702 51.553176
51.887274 52.218453 52.546562 52.871056 53.191775 53.508179 53.820106 54.127024
54.428777 54.724848 55.015088 55.299003 55.576455 55.846979 56.110451 56.366439
56.614835 56.855244 57.087577 57.311474 57.526869 57.733439 57.931136 58.119678
58.299033 58.468957 58.629434 58.780255 58.921417 59.052747 59.174248 59.285780
59.387352 59.478854 59.560297 59.631597 59.692767 59.743744 59.784541 59.815118
59.835481 59.845613 59.845516 59.835192 59.814636 59.783872 59.742891 59.691736
59.630396 59.558934 59.477338 59.385695 59.283994 59.172348 59.050749 58.919339
58.778115 58.627254 58.466760 58.296844 58.117524 57.929047 57.731446 57.525006
57.309777 57.086085 56.853999 56.613881 56.365822 56.110223 55.847191 55.577165
55.300270 55.016975 54.727421 54.432108 54.131184 53.825174 53.514235 53.198907
52.879350 52.556115 52.229359 51.899637 51.567101 51.232301 50.895377 50.556871
50.216906 49.876010 49.534286 49.192240 48.849952 48.507904 48.166152 47.825146
47.484914 47.145878 46.808036 46.471772 46.137061 45.804248 45.473280 45.144465
44.817723 44.493323 44.171161 43.851467 43.534114 43.219294 42.906859 42.596963
42.289442 41.984410 41.681689 41.381358 41.083228 40.787341 40.493500 40.201716
39.911783 39.623683 39.337208 39.052308 38.768777 38.486539 38.205391 37.925231
37.645862 37.367161 37.088941 36.811056 36.533333
36.911111 37.223621 37.536297 37.849324 38.162850 38.477071 38.792113 39.108183
39.425382 39.743923 40.063881 40.385471 40.708740 41.033902 41.360972 41.690162
42.021450 42.355043 42.690884 43.029167 43.369799 43.712960 44.058518 44.406637
44.757141 45.110176 45.465526 45.823313 46.183277 46.545516 46.909728 47.275984
47.643939 48.013635 48.384686 48.757103 49.130461 49.504741 49.879481 50.254631
50.629695 51.004594 51.378800 51.752210 52.124270 52.494851 52.863380 53.229708
53.593248 53.953837 54.310879 54.664199 55.013205 55.357715 55.697144 56.031312
56.359647 56.681978 56.997752 57.306810 57.608628 57.903060 58.189619 58.468175
58.738278 58.999822 59.252397 59.495916 59.730015 59.954629 60.169434 60.374387
60.569207 60.753870 60.928135 61.091993 61.245243 61.387887 61.519759 61.640871
61.751089 61.850429 61.938787 62.016182 62.082535 62.137863 62.182112 62.215295
62.237382 62.248378 62.248274 62.237071 62.214780 62.181396 62.136950 62.081432
62.014897 61.937328 61.848807 61.749316 61.638962 61.517728 61.385752 61.243022
61.089709 60.925809 60.751527 60.566875 60.372094 60.167212 59.952513 59.728042
59.494125 59.250828 58.998522 58.737294 58.467558 58.189423 57.903344 57.609451
57.308238 56.999852 56.684822 56.363312 56.035877 55.702692 55.364336 55.020989
54.673245 54.321286 53.965713 53.606702 53.244856 52.880339 52.513749 52.145234
51.775377 51.404306 51.032585 50.660319 50.288044 49.915839 49.544210 49.173206
48.803301 48.434512 48.067275 47.701578 47.337815 46.975945 46.616322 46.258874
45.903911 45.551335 45.201415 44.854025 44.509390 44.167363 43.828128 43.491515
43.157667 42.826398 42.497810 42.171702 41.848138 41.526907 41.208036 40.891304
40.576705 40.264014 39.953191 39.644011 39.336402 39.030141 38.725130 38.421150
38.118077 37.815701 37.513876 37.212401 36.911111
37.288889 37.625954 37.963210 38.300830 38.639019 38.977930 39.317779 39.658694
40.000901 40.344500 40.689721 41.036633 41.385471 41.736269 42.089259 42.444440
42.802040 43.162019 43.524595 43.889690 44.257506 44.627926 45.001136 45.376973
45.755603 46.136821 46.520769 46.907194 47.296214 47.687530 48.081231 48.476971
48.874807 49.274350 49.675624 50.078194 50.482053 50.886722 51.292160 51.697850
52.103718 52.509211 52.914224 53.318173 53.720925 54.121869 54.520850 54.917237
55.310853 55.701059 56.087661 56.470016 56.847923 57.220741 57.588269 57.949877
58.305367 58.654132 58.995983 59.330340 59.657030 59.975506 60.285616 60.586852
60.879085 61.161853 61.435047 61.698253 61.951390 62.194088 62.426290 62.647675
62.858209 63.057614 63.245876 63.422761 63.588270 63.742210 63.884591 64.015259
64.134231 64.241384 64.336740 64.420205 64.491801 64.551460 64.599200 64.634978
64.658805 64.670661 64.670551 64.658475 64.634430 64.598439 64.550490 64.490629
64.418839 64.335190 64.239661 64.132348 64.013231 63.882436 63.739944 63.585915
63.420339 63.243412 63.055134 62.855742 62.645253 62.423947 62.191860 61.949317
61.696377 61.433414 61.160509 60.878084 60.586247 60.285466 59.975873 59.657979
59.331941 58.998310 58.657260 58.309380 57.954858 57.594311 57.227938 56.856375
56.479825 56.098939 55.713917 55.325413 54.933619 54.539186 54.142291 53.743575
53.343193 52.941767 52.539429 52.136774 51.733907 51.331393 50.929303 50.528168
50.128026 49.729368 49.332200 48.936969 48.543647 48.152637 47.763878 47.377728
46.994095 46.613289 46.235189 45.860059 45.487752 45.118485 44.752087 44.388731
44.028224 43.670695 43.315935 42.964030 42.614756 42.268160 41.924008 41.582307
41.242816 40.905508 40.570137 40.236641 39.904776 39.574450 39.245421 38.917567
38.590655 38.264537 37.938990 37.613844 37.288889
37.666667 38.028396 38.390323 38.752663 39.115593 39.479342 39.844061 40.209992
40.577259 40.946109 41.316635 41.689090 42.063531 42.440211 42.819151 43.200599
43.584539 43.971207 44.360548 44.752786 45.147821 45.545862 45.946763 46.350713
46.757518 47.167345 47.579950 47.995473 48.413622 48.834507 49.257784 49.683530
50.111354 50.541298 50.972920 51.406227 51.840730 52.276398 52.712697 53.149562
53.586416 54.023158 54.459175 54.894334 55.327990 55.759979 56.189633 56.616765
57.040687 57.461192 57.877586 58.289648 58.696684 59.098467 59.494311 59.883991
60.266841 60.642642 61.010754 61.370975 61.722698 62.065742 62.399539 62.723934
63.038406 63.342826 63.636723 63.919995 64.192225 64.453339 64.702970 64.941072
65.167329 65.381716 65.583968 65.774079 65.951828 66.117224 66.270088 66.410438
66.538133 66.653198 66.755521 66.845130 66.921942 66.985982 67.037193 67.075595
67.101154 67.113880 67.113763 67.100805 67.075016 67.036389 66.984957 66.920704
66.843687 66.753884 66.651379 66.536147 66.408300 66.267814 66.114836 65.949346
65.771528 65.581374 65.379108 65.164737 64.938531 64.700516 64.451010 64.190064
63.918047 63.635035 63.341452 63.037399 62.723354 62.399447 62.066205 61.723786
61.372763 61.013319 60.646068 60.271214 59.889405 59.500860 59.106255 58.705815
58.300237 57.889746 57.475049 57.056364 56.634398 56.209359 55.781942 55.352338
54.921225 54.488767 54.055619 53.621916 53.188282 52.754818 52.322111 51.890227
51.459713 51.030596 50.603379 50.178053 49.755073 49.334393 48.916418 48.501068
48.088699 47.679197 47.272867 46.869565 46.469545 46.072637 45.679046 45.288577
44.901387 44.517260 44.136309 43.758298 43.383296 43.011055 42.641602 42.274680
41.910274 41.548122 41.188173 40.830162 40.474004 40.119435 39.766339 39.414458
39.063645 38.713654 38.364310 38.015380 37.666667
38.044444 38.430942 38.817663 39.204809 39.592622 39.981280 40.371036 40.762041
41.154558 41.548707 41.944755 42.342790 42.743080 43.145673 43.550838 43.958581
44.369164 44.782550 45.198990 45.618403 46.041023 46.466722 46.895714 47.327822
47.763236 48.201727 48.643460 49.088151 49.535933 49.986471 50.439864 50.895723
51.354108 51.814577 52.277154 52.741343 53.207127 53.673961 54.141788 54.610015
55.078546 55.546745 56.014479 56.481072 56.946359 57.409633 57.870697 58.328821
58.783786 59.234845 59.681762 60.123785 60.560666 60.991660 61.416516 61.834503
62.245375 62.648429 63.043429 63.429707 63.807047 64.174822 64.532844 64.880532
65.217727 65.543903 65.858932 66.162344 66.454045 66.733619 67.001004 67.255841
67.498095 67.727463 67.943932 68.147251 68.337424 68.514248 68.677741 68.827740