# vtk DataFile Version 3.0
Steady-state temperature (Jacobi)
ASCII
DATASET STRUCTURED_POINTS
DIMENSIONS 181 181 1
ORIGIN 0.0 0.0 0.0
SPACING 0.05 0.05 1.0
POINT_DATA 32761
SCALARS Temperature float 1
LOOKUP_TABLE default
32.000000 32.000000 32.000000 32.000000 32.000000 32.000000 32.000000 32.000000
32.000000 32.000000 32.000000 32.000000 32.000000 32.000000 32.000000 32.000000
32.000000 32.000000 32.000000 32.000000 32.000000 32.000000 32.000000 32.000000
32.000000 32.000000 32.000000 32.000000 32.000000 32.000000 32.000000 32.000000
32.000000 32.000000 32.000000 32.000000 32.000000 32.000000 32.000000 32.000000
32.000000 32.000000 32.000000 32.000000 32.000000 32.000000 32.000000 32.000000
32.000000 32.000000 32.000000 32.000000 32.000000 32.000000 32.000000 32.000000
32.000000 32.000000 32.000000 32.000000 32.000000 32.000000 32.000000 32.000000
32.000000 32.000000 32.000000 32.000000 32.000000 32.000000 32.000000 32.000000
32.000000 32.000000 32.000000 32.000000 32.000000 32.000000 32.000000 32.000000
32.000000 32.000000 32.000000 32.000000 32.000000 32.000000 32.000000 32.000000
32.000000 32.000000 32.000000 32.000000 32.000000 32.000000 32.000000 32.000000
32.000000 32.000000 32.000000 32.000000 32.000000 32.000000 32.000000 32.000000
32.000000 32.000000 32.000000 32.000000 32.000000 32.000000 32.000000 32.000000
32.000000 32.000000 32.000000 32.000000 32.000000 32.000000 32.000000 32.000000
32.000000 32.000000 32.000000 32.000000 32.000000 32.000000 32.000000 32.000000
32.000000 32.000000 32.000000 32.000000 32.000000 32.000000 32.000000 32.000000
32.000000 32.000000 32.000000 32.000000 32.000000 32.000000 32.000000 32.000000
32.000000 32.000000 32.000000 32.000000 32.000000 32.000000 32.000000 32.000000
32.000000 32.000000 32.000000 32.000000 32.000000 32.000000 32.000000 32.000000
32.000000 32.000000 32.000000 32.000000 32.000000 32.000000 32.000000 32.000000
32.000000 32.000000 32.000000 32.000000 32.000000 32.000000 32.000000 32.000000
32.000000 32.000000 32.000000 32.000000 32.000000
32.377778 32.366795 32.355842 32.344955 32.334159 32.323491 32.312975 32.302650
32.292534 32.282669 32.273069 32.263778 32.254801 32.246189 32.237939 32.230103
32.222672 32.215701 32.209172 32.203143 32.197589 32.192568 32.188048 32.184090
32.180652 32.177798 32.175476 32.173753 32.172567 32.171989 32.171946 32.172511
32.173601 32.175294 32.177495 32.180285 32.183558 32.187400 32.191694 32.196528
32.201778 32.207533 32.213660 32.220251 32.227165 32.234497 32.242100 32.250069
32.258251 32.266745 32.275393 32.284296 32.293292 32.302483 32.311707 32.321066
32.330398 32.339806 32.349131 32.358474 32.367679 32.376847 32.385828 32.394721
32.403380 32.411906 32.420158 32.428233 32.436001 32.443555 32.450773 32.457743
32.464356 32.470693 32.476655 32.482317 32.487592 32.492548 32.497107 32.501332
32.505156 32.508631 32.511704 32.514417 32.516729 32.518672 32.520216 32.521383
32.522154 32.522542 32.522540 32.522148 32.521372 32.520200 32.518651 32.516703
32.514386 32.511666 32.508586 32.505103 32.501271 32.497037 32.492467 32.487500
32.482212 32.476535 32.470558 32.464203 32.457570 32.450578 32.443336 32.435755
32.427957 32.419850 32.411561 32.402997 32.394294 32.385353 32.376321 32.367096
32.357830 32.348420 32.339024 32.329537 32.320121 32.310671 32.301350 32.292054
32.282946 32.273924 32.265148 32.256518 32.248192 32.240070 32.232306 32.224803
32.217710 32.210930 32.204606 32.198645 32.193180 32.188121 32.183594 32.179512
32.175989 32.172943 32.170479 32.168515 32.167149 32.166302 32.166059 32.166347
32.167240 32.168667 32.170694 32.173251 32.176395 32.180060 32.184292 32.189028
32.194305 32.200064 32.206331 32.213052 32.220243 32.227853 32.235891 32.244308
32.253106 32.262238 32.271700 32.281446 32.291468 32.301722 32.312193 32.322841
32.333646 32.344570 32.355589 32.366667 32.377778
32.755556 32.733600 32.711709 32.689940 32.668366 32.647035 32.626025 32.605376
32.585172 32.565441 32.546274 32.527687 32.509776 32.492544 32.476093 32.460412
32.445607 32.431652 32.418660 32.406588 32.395554 32.385498 32.376542 32.368609
32.361828 32.356101 32.351564 32.348097 32.345844 32.344666 32.344709 32.345816
32.348139 32.351499 32.356056 32.361608 32.368322 32.375977 32.384744 32.394383
32.405072 32.416550 32.429003 32.442153 32.456189 32.470821 32.486240 32.502143
32.518728 32.535681 32.553201 32.570970 32.589188 32.607532 32.626206 32.644885
32.663774 32.682550 32.701420 32.720064 32.738689 32.756984 32.775153 32.792896
32.810414 32.827422 32.844114 32.860222 32.875934 32.890998 32.905597 32.919498
32.932871 32.945507 32.957564 32.968853 32.979520 32.989399 32.998620 33.007040
33.014773 33.021699 33.027913 33.033320 33.037995 33.041866 33.044988 33.047313
33.048874 33.049647 33.049643 33.048861 33.047291 33.044957 33.041825 33.037944
33.033257 33.027838 33.021609 33.014668 33.006918 32.998480 32.989238 32.979336
32.968643 32.957325 32.945236 32.932565 32.919152 32.905208 32.890560 32.875442
32.859670 32.843497 32.826733 32.809646 32.792042 32.774204 32.755932 32.737524
32.718776 32.699999 32.680985 32.662052 32.642995 32.624134 32.605265 32.586712
32.568270 32.550263 32.532487 32.515262 32.498389 32.482180 32.466438 32.451466
32.437071 32.423544 32.410697 32.398805 32.387686 32.377599 32.368366 32.360230
32.353018 32.346953 32.341868 32.337968 32.335092 32.333422 32.332806 32.333404
32.335071 32.337947 32.341893 32.347028 32.353219 32.360568 32.368945 32.378434
32.388913 32.400445 32.412914 32.426367 32.440693 32.455923 32.471951 32.488792
32.506347 32.524616 32.543505 32.563002 32.583016 32.603525 32.624444 32.645738
32.667329 32.689173 32.711195 32.733345 32.755556
33.133333 33.100429 33.067616 33.034999 33.002656 32.970703 32.939203 32.908282
32.877988 32.848454 32.819713 32.791906 32.765048 32.739286 32.714617 32.691196
32.668995 32.648180 32.628699 32.610725 32.594181 32.579248 32.565824 32.554097
32.543936 32.535539 32.528745 32.523762 32.520397 32.518869 32.518952 32.520874
32.524381 32.529707 32.536566 32.545204 32.555303 32.567117 32.580298 32.595110
32.611176 32.628768 32.647483 32.667600 32.688692 32.711046 32.734214 32.758488
32.783405 32.809262 32.835583 32.862668 32.890033 32.917984 32.946031 32.974482
33.002848 33.031439 33.059772 33.088155 33.116115 33.143961 33.171232 33.198233
33.224523 33.250400 33.275446 33.299950 33.323521 33.346437 33.368333 33.389475
33.409530 33.428746 33.446823 33.463990 33.479980 33.495002 33.508822 33.521625
33.533213 33.543743 33.553055 33.561275 33.568280 33.574165 33.578842 33.582377
33.584715 33.585890 33.585883 33.584695 33.582344 33.578795 33.574104 33.568202
33.561181 33.552941 33.543610 33.533056 33.521443 33.508612 33.494761 33.479704
33.463675 33.446465 33.428340 33.409071 33.388956 33.367748 33.345779 33.322783
33.299123 33.274521 33.249367 33.223371 33.196951 33.169808 33.142382 33.114367
33.086223 33.057640 33.029091 33.000266 32.971647 32.942924 32.914585 32.886320
32.858619 32.831174 32.804471 32.778207 32.752857 32.728125 32.704472 32.681607
32.659977 32.639295 32.619988 32.601777 32.585065 32.569580 32.555701 32.543164
32.532319 32.522911 32.515261 32.509124 32.504789 32.502021 32.501080 32.501738
32.504224 32.508322 32.514228 32.521737 32.531014 32.541864 32.554422 32.568503
32.584214 32.601378 32.620076 32.640138 32.661622 32.684366 32.708402 32.733577
32.759904 32.787234 32.815559 32.844742 32.874754 32.905465 32.936832 32.968730
33.001101 33.033830 33.066846 33.100042 33.133333
33.511111 33.467288 33.423596 33.380149 33.337094 33.294528 33.252609 33.211415
33.171118 33.131773 33.093563 33.056521 33.020840 32.986527 32.953786 32.922595
32.893170 32.865458 32.839686 32.815767 32.793940 32.774083 32.756447 32.740872
32.727620 32.716494 32.707767 32.701202 32.697085 32.695136 32.695654 32.698318
32.703438 32.710652 32.720282 32.731923 32.745910 32.761797 32.779931 32.799826
32.821840 32.845451 32.871028 32.898014 32.926788 32.956763 32.988327 33.020868
33.054781 33.089435 33.125230 33.161521 33.198715 33.236158 33.274259 33.312363
33.350883 33.389167 33.427627 33.465624 33.503568 33.540836 33.577835 33.613963
33.649623 33.684239 33.718205 33.750977 33.782935 33.813574 33.843257 33.871518
33.898701 33.924380 33.948878 33.971814 33.993482 34.013547 34.032272 34.049369
34.065068 34.079129 34.091743 34.102718 34.112205 34.120062 34.126397 34.131115
34.134282 34.135850 34.135841 34.134256 34.131071 34.126334 34.119980 34.112102
34.102592 34.091592 34.078951 34.064860 34.049127 34.031992 34.013225 33.993114
33.971395 33.948401 33.923839 33.898088 33.870827 33.842478 33.812698 33.781951
33.749874 33.716971 33.682862 33.648088 33.612255 33.575937 33.538731 33.501237
33.463048 33.424785 33.386036 33.347440 33.308584 33.270117 33.231625 33.193764
33.156122 33.119352 33.083046 33.047850 33.013360 32.980208 32.947998 32.917341
32.887850 32.860111 32.833744 32.809307 32.786432 32.765641 32.746576 32.729726
32.714743 32.702076 32.691391 32.683097 32.676871 32.673081 32.671418 32.672207
32.675152 32.680538 32.688081 32.698024 32.710097 32.724503 32.740985 32.759707
32.780424 32.803264 32.827992 32.854702 32.883171 32.913461 32.945357 32.978892
33.013864 33.050273 33.087930 33.126810 33.166733 33.207650 33.249392 33.291890
33.334984 33.378587 33.422551 33.466771 33.511111
33.888889 33.834195 33.779656 33.725446 33.671697 33.618602 33.566270 33.514909
33.464603 33.415575 33.367880 33.321756 33.277227 33.234543 33.193695 33.154947
33.118253 33.083891 33.051774 33.022195 32.995023 32.970565 32.948647 32.929589
32.913170 32.899724 32.888981 32.881290 32.876329 32.874465 32.875321 32.879279
32.885911 32.895615 32.907907 32.923201 32.940963 32.961620 32.984587 33.010307
33.038146 33.068559 33.100870 33.135545 33.171868 33.210317 33.250139 33.291824
33.334592 33.378939 33.424063 33.470469 33.517340 33.565187 33.613187 33.661854
33.710365 33.759239 33.807662 33.856150 33.903909 33.951451 33.998005 34.044080
34.088935 34.133068 34.175779 34.217550 34.257724 34.296767 34.334069 34.370073
34.404222 34.436931 34.467698 34.496908 34.524112 34.549661 34.573164 34.594932
34.614633 34.632531 34.648357 34.662326 34.674228 34.684228 34.692174 34.698178
34.702150 34.704146 34.704135 34.702118 34.698123 34.692096 34.684125 34.674099
34.662169 34.648169 34.632308 34.614372 34.594629 34.572814 34.549259 34.523652
34.496383 34.467102 34.436255 34.403456 34.369209 34.333095 34.295671 34.256494
34.216172 34.174237 34.131347 34.087016 34.041944 33.995633 33.948820 33.900996
33.852931 33.804110 33.755326 33.706062 33.657129 33.608009 33.559522 33.511151
33.463720 33.416716 33.370954 33.325928 33.282440 33.239991 33.199361 33.160060
33.122841 33.087224 33.053926 33.022481 32.993565 32.966725 32.942595 32.920733
32.901727 32.885150 32.871540 32.860485 32.852473 32.847106 32.844820 32.845234
32.848731 32.854947 32.864212 32.876178 32.891126 32.908722 32.929199 32.952238
32.978024 33.006255 33.037069 33.070179 33.105682 33.143302 33.183099 33.224810
33.268457 33.313791 33.360800 33.409248 33.459092 33.510109 33.562227 33.615239
33.669046 33.723455 33.778344 33.833536 33.888889
34.266667 34.201153 34.135838 34.070896 34.006546 33.942938 33.880311 33.818783
33.758614 33.699889 33.642885 33.587652 33.534484 33.483390 33.434682 33.388327
33.344652 33.303577 33.265448 33.230135 33.197999 33.168857 33.143089 33.120456
33.101355 33.085489 33.073272 33.064345 33.059144 33.057245 33.059102 33.064229
33.073098 33.085157 33.100898 33.119705 33.142088 33.167369 33.196073 33.227466
33.262087 33.299145 33.339196 33.381397 33.426318 33.473071 33.522238 33.572893
33.625629 33.679488 33.735075 33.791409 33.849101 33.907160 33.966203 34.025233
34.084872 34.144131 34.203631 34.262401 34.321060 34.378661 34.435819 34.491621
34.546672 34.600104 34.652505 34.703058 34.752332 34.799565 34.845303 34.888844
34.930705 34.970247 35.007953 35.043251 35.076583 35.107447 35.136240 35.162529
35.186659 35.208269 35.227651 35.244513 35.259087 35.271155 35.280885 35.288131
35.292994 35.295403 35.295390 35.292955 35.288065 35.280791 35.271032 35.258932
35.244324 35.227424 35.208002 35.186346 35.162165 35.135821 35.106965 35.076032
35.042622 35.007237 34.969435 34.929787 34.887807 34.844135 34.798250 34.750856
34.701404 34.650655 34.598038 34.544370 34.489058 34.432972 34.375504 34.317564
34.258538 34.199368 34.139435 34.079708 34.019564 33.959989 33.900362 33.841675
33.783311 33.726259 33.669907 33.615232 33.561632 33.510060 33.459924 33.412149
33.366152 33.322821 33.281585 33.243289 33.207376 33.174639 33.144539 33.117813
33.093937 33.073591 33.056269 33.042588 33.032063 33.025247 33.021673 33.021833
33.025278 33.032436 33.042878 33.056972 33.074306 33.095188 33.119225 33.146668
33.177141 33.210839 33.247405 33.286980 33.329226 33.374234 33.421681 33.471613
33.523723 33.578015 33.634197 33.692234 33.751851 33.812976 33.875350 33.938870
34.003293 34.068487 34.134228 34.200356 34.266667
34.644444 34.568183 34.492142 34.416565 34.341644 34.267648 34.194735 34.123198
34.053158 33.984929 33.918591 33.854481 33.792633 33.733404 33.676781 33.623140
33.572415 33.525002 33.480778 33.440160 33.402965 33.369628 33.339904 33.314249
33.292348 33.274681 33.260861 33.251390 33.245809 33.244639 33.247349 33.254481
33.265429 33.280756 33.299779 33.323084 33.349914 33.380874 33.415136 33.453323
33.494539 33.539427 33.587024 33.637992 33.691312 33.747658 33.805963 33.866914
33.929405 33.994134 34.059962 34.127598 34.195883 34.265535 34.335384 34.406152
34.476675 34.547676 34.618003 34.688382 34.757684 34.826631 34.894131 34.960895
35.025879 35.089781 35.151610 35.212046 35.270159 35.326606 35.380526 35.432544
35.481871 35.529097 35.573510 35.615655 35.654902 35.691744 35.725633 35.757006
35.785398 35.811183 35.833981 35.854098 35.871238 35.885633 35.897074 35.905717
35.911435 35.914308 35.914292 35.911389 35.905640 35.896965 35.885490 35.871057
35.853877 35.833717 35.810871 35.785033 35.756582 35.725143 35.691181 35.654259
35.614921 35.572676 35.528150 35.480800 35.431334 35.379163 35.325073 35.268438
35.210116 35.149452 35.087371 35.023193 34.957906 34.890810 34.822948 34.753607
34.683875 34.613030 34.542198 34.470650 34.399539 34.328135 34.257604 34.187220
34.118150 34.049676 33.982955 33.917276 33.853777 33.791756 33.732320 33.674782
33.620207 33.567921 33.518941 33.472609 33.429886 33.390131 33.354241 33.321595
33.293023 33.267923 33.247055 33.229837 33.216957 33.207854 33.203143 33.202283
33.205816 33.213225 33.224975 33.240574 33.260416 33.284029 33.311737 33.343091
33.378350 33.417084 33.459488 33.505154 33.554217 33.606287 33.661445 33.719321
33.779942 33.842957 33.908345 33.975775 34.045183 34.116255 34.188887 34.262784
34.337809 34.413686 34.490243 34.567230 34.644444
35.022222 34.935284 34.848615 34.762450 34.677087 34.592726 34.509693 34.428146
34.348439 34.270685 34.195262 34.122235 34.052005 33.984584 33.920395 33.859394
33.802026 33.748184 33.698336 33.652308 33.610592 33.572940 33.539871 33.511060
33.487047 33.467433 33.452780 33.442604 33.437496 33.436885 33.441386 33.450344
33.464396 33.482799 33.506217 33.533821 33.566295 33.602727 33.643823 33.688590
33.737755 33.790248 33.846816 33.906319 33.969522 34.035223 34.104201 34.175204
34.249025 34.324368 34.402041 34.480717 34.561212 34.642184 34.724457 34.806684
34.889692 34.972146 35.054876 35.136566 35.218044 35.298033 35.377352 35.454770
35.531097 35.605159 35.677747 35.747757 35.815955 35.881312 35.944564 36.004762
36.062605 36.117232 36.169294 36.218022 36.264013 36.306592 36.346294 36.382538
36.415791 36.445570 36.472266 36.495493 36.515559 36.532177 36.545569 36.555545
36.562238 36.565554 36.565537 36.562186 36.555457 36.545445 36.532012 36.515353
36.495241 36.471965 36.445214 36.415374 36.382053 36.345734 36.305950 36.263278
36.217184 36.168341 36.116150 36.061381 36.003380 35.943006 35.879560 35.813988
35.745553 35.675281 35.602405 35.528027 35.451354 35.373557 35.293824 35.213385
35.131415 35.049193 34.965886 34.882808 34.799125 34.716173 34.633120 34.551311
34.469920 34.390287 34.311594 34.235164 34.160190 34.087965 34.017695 33.950631
33.885994 33.824984 33.766837 33.712693 33.661806 33.615247 33.572290 33.533932
33.499467 33.469813 33.444286 33.423722 33.407462 33.396254 33.389465 33.387759
33.390526 33.398346 33.410635 33.427888 33.449548 33.476027 33.506794 33.542183
33.581688 33.625567 33.673337 33.725188 33.780658 33.839871 33.902389 33.968272
34.037104 34.108889 34.183233 34.260086 34.339076 34.420107 34.502826 34.587094
34.672584 34.759116 34.846387 34.934181 35.022222
35.400000 35.302482 35.205251 35.108629 35.012861 34.918304 34.825162 34.733819
34.644431 34.557413 34.472869 34.391238 34.312568 34.237325 34.165494 34.097567
34.033460 33.973693 33.918107 33.867248 33.820879 33.779573 33.743010 33.711789
33.685503 33.664778 33.649114 33.639167 33.634340 33.635318 33.641407 33.653318
33.670260 33.692970 33.720557 33.753787 33.791670 33.834996 33.882683 33.935543
33.992405 34.054102 34.119379 34.189092 34.261908 34.338702 34.418076 34.500920
34.585785 34.673572 34.762793 34.854361 34.946760 35.040914 35.135294 35.230831
35.325999 35.421733 35.516528 35.611316 35.704625 35.797385 35.888170 35.977901
36.065214 36.151011 36.234001 36.315064 36.392992 36.468633 36.540868 36.610508
36.676531 36.739700 36.799094 36.855420 36.907863 36.957063 37.002314 37.044182
37.082068 37.116458 37.146863 37.173680 37.196529 37.215712 37.230958 37.242472
37.250092 37.253919 37.253899 37.250033 37.242374 37.230818 37.215527 37.196297
37.173397 37.146524 37.116057 37.081599 37.043637 37.001685 36.956341 36.907036
36.854478 36.798022 36.738484 36.675154 36.608953 36.539116 36.466662 36.390779
36.312585 36.231227 36.147913 36.061761 35.974059 35.883901 35.792650 35.699383
35.605522 35.510135 35.414691 35.318254 35.222328 35.125975 35.030718 34.935622
34.842216 34.749570 34.659201 34.570192 34.484030 34.399811 34.318983 34.240657
34.166227 34.094819 34.027766 33.964211 33.905413 33.850537 33.800757 33.755263
33.715141 33.679605 33.649646 33.624506 33.605081 33.590638 33.581977 33.578393
33.580587 33.587885 33.600892 33.618961 33.642604 33.671203 33.705179 33.743942
33.787827 33.836270 33.889525 33.947055 34.009034 34.074953 34.144914 34.218431
34.295540 34.375780 34.459124 34.545137 34.633735 34.724507 34.817318 34.911782
35.007718 35.104767 35.202706 35.301204 35.400000
35.777778 35.669771 35.562107 35.455083 35.349081 35.244355 35.141319 35.040176
34.941376 34.845064 34.751721 34.661432 34.574708 34.491566 34.412547 34.337595
34.267279 34.201466 34.140754 34.084923 34.034603 33.989483 33.950222 33.916413
33.888748 33.866718 33.851044 33.841114 33.837680 33.840021 33.848920 33.863547
33.884714 33.911478 33.944684 33.983277 34.028128 34.078076 34.134019 34.194690
34.261012 34.331622 34.407463 34.487084 34.571448 34.659025 34.750796 34.845162
34.943123 35.043025 35.145882 35.250002 35.356410 35.463393 35.571985 35.680468
35.789880 35.898520 36.007426 36.114925 36.222056 36.327191 36.431361 36.533002
36.633129 36.730255 36.825373 36.917084 37.006352 37.091876 37.174583 37.253275
37.328833 37.400171 37.468113 37.531688 37.591653 37.647157 37.698878 37.746088
37.789378 37.828141 37.862873 37.893089 37.919183 37.940792 37.958202 37.971170
37.979870 37.984180 37.984159 37.979805 37.971061 37.958046 37.940587 37.918926
37.892774 37.862496 37.827695 37.788857 37.745483 37.698180 37.646354 37.590734
37.530641 37.466922 37.398820 37.327304 37.251548 37.172637 37.089687 37.003894
36.914329 36.822291 36.726813 36.629293 36.528733 36.426618 36.321931 36.216232
36.108488 36.000323 35.890696 35.781276 35.671021 35.561631 35.452065 35.344035
35.236507 35.131190 35.027058 34.925798 34.826396 34.730502 34.637116 34.547837
34.461679 34.380175 34.302360 34.229688 34.161213 34.098302 34.040035 33.987679
33.940340 33.899185 33.863345 33.833881 33.809956 33.792518 33.780761 33.775525
33.776036 33.783024 33.795747 33.814829 33.839559 33.870458 33.906846 33.949146
33.996709 34.049862 34.107987 34.171322 34.239279 34.312010 34.388956 34.470194
34.555190 34.643949 34.735967 34.831181 34.929116 35.029647 35.132328 35.236981
35.343187 35.450718 35.559189 35.668326 35.777778
36.155556 36.037182 35.919165 35.801907 35.685715 35.571033 35.458115 35.347442
35.239208 35.133932 35.031743 34.933192 34.838338 34.747767 34.661458 34.580031
34.503381 34.432160 34.366172 34.306104 34.251661 34.203562 34.161412 34.125961
34.096706 34.074431 34.058518 34.049786 34.047498 34.052507 34.063954 34.082728
34.107843 34.140221 34.178755 34.224395 34.275913 34.334288 34.398174 34.468577
34.544038 34.625587 34.711661 34.803313 34.898884 34.999449 35.103264 35.211424
35.322119 35.436456 35.552574 35.671596 35.791626 35.913798 36.036201 36.159977
36.283221 36.407078 36.529670 36.652140 36.772654 36.892350 37.009457 37.125101
37.237589 37.348029 37.454818 37.559040 37.659195 37.756331 37.849063 37.938392
38.023054 38.103993 38.180073 38.252170 38.319280 38.382196 38.440048 38.493542
38.541940 38.585848 38.624662 38.658879 38.688032 38.712497 38.731942 38.746622
38.756338 38.761217 38.761194 38.756267 38.746502 38.731771 38.712271 38.687748
38.658534 38.624248 38.585358 38.541368 38.492877 38.439281 38.381314 38.318270
38.251019 38.178764 38.102507 38.021372 37.936492 37.846923 37.753923 37.656492
37.556010 37.451429 37.344244 37.233370 37.120406 37.004241 36.886565 36.766248
36.645060 36.521857 36.398472 36.273757 36.149586 36.024813 35.901337 35.778015
35.656753 35.536415 35.418893 35.303062 35.190783 35.080943 34.975351 34.872913
34.775370 34.681646 34.593402 34.509583 34.431755 34.358889 34.292446 34.231422
34.177169 34.128710 34.087280 34.051933 34.023784 34.001919 33.987330 33.979138
33.978213 33.983710 33.996381 34.015414 34.041444 34.073697 34.112693 34.157692
34.209108 34.266236 34.329386 34.397886 34.471951 34.550942 34.634983 34.723468
34.816438 34.913316 35.014069 35.118151 35.225457 35.335473 35.448031 35.562651
35.679104 35.796944 35.915893 36.035539 36.155556
36.533333 36.404703 36.276492 36.149067 36.022895 35.898288 35.775754 35.655544
35.538208 35.423927 35.313292 35.206408 35.103903 35.005801 34.912767 34.824736
34.742409 34.665625 34.595122 34.530634 34.472938 34.421657 34.377603 34.340284
34.310549 34.287782 34.272871 34.265070 34.265304 34.272697 34.288209 34.310827
34.341548 34.379223 34.424883 34.477240 34.537360 34.603821 34.677717 34.757499
34.844289 34.936415 35.035024 35.138335 35.247514 35.360683 35.479028 35.600587
35.726564 35.854928 35.986900 36.120403 36.256668 36.393594 36.532419 36.671038
36.810698 36.949309 37.088120 37.225082 37.361442 37.495208 37.627621 37.756768
37.883873 38.007119 38.127708 38.243932 38.356959 38.465204 38.569790 38.669265
38.764695 38.854765 38.940475 39.020653 39.096218 39.166144 39.231256 39.290677
39.345127 39.393875 39.437528 39.475503 39.508280 39.535423 39.557282 39.573566
39.584487 39.589899 39.589873 39.584409 39.573435 39.557095 39.535178 39.507971
39.475126 39.437077 39.393341 39.344502 39.289952 39.230419 39.165182 39.095118
39.019398 38.939047 38.853145 38.762861 38.667194 38.567456 38.462578 38.354011
38.240628 38.124012 38.002992 37.879271 37.751647 37.621932 37.488898 37.354455
37.217360 37.079599 36.939922 36.800374 36.659704 36.519997 36.380001 36.241821
36.104212 35.969273 35.835770 35.705776 35.578070 35.454679 35.334396 35.219183
35.107852 35.002282 34.901306 34.806704 34.717332 34.634863 34.558178 34.488828
34.425725 34.370294 34.321475 34.280563 34.246533 34.220544 34.201606 34.190744
34.187005 34.191281 34.202656 34.221891 34.248110 34.281946 34.322561 34.370468
34.424867 34.486155 34.553568 34.627395 34.706909 34.792296 34.882866 34.978708
35.079169 35.184251 35.293333 35.406337 35.522679 35.642205 35.764368 35.888947
36.015430 36.143538 36.272797 36.402873 36.533333
36.911111 36.772370 36.634062 36.496671 36.360571 36.226298 36.094160 35.964739
35.838273 35.715388 35.596243 35.481508 35.371254 35.266193 35.166305 35.072340
34.984177 34.902608 34.827401 34.759389 34.698224 34.644778 34.598581 34.560544
34.530065 34.508099 34.493902 34.488471 34.490921 34.502287 34.521537 34.549745
34.585729 34.630601 34.683028 34.744157 34.812506 34.889255 34.972778 35.064283
35.162007 35.267184 35.377923 35.495483 35.617855 35.746319 35.878767 36.016497
36.157316 36.302539 36.449912 36.600762 36.752794 36.907348 37.062112 37.218432
37.374007 37.530187 37.684701 37.838902 37.990574 38.141065 38.288237 38.433426
38.574592 38.713051 38.846877 38.977358 39.102695 39.224138 39.340027 39.451558
39.557222 39.658148 39.752981 39.842771 39.926322 40.004589 40.076538 40.143015
40.203148 40.257663 40.305849 40.348302 40.384469 40.414805 40.438918 40.457115
40.469160 40.475208 40.475180 40.469076 40.456973 40.438716 40.414540 40.384135
40.347894 40.305360 40.257085 40.202472 40.142230 40.075631 40.003548 39.925130
39.841411 39.751435 39.656393 39.555236 39.449315 39.337499 39.221294 39.099503
38.973779 38.842874 38.708580 38.569608 38.427879 38.282074 38.134230 37.983006
37.830537 37.675471 37.520018 37.362824 37.206155 37.048655 36.892624 36.736710
36.583222 36.430817 36.281785 36.134797 35.992104 35.852390 35.717843 35.587165
35.462462 35.342455 35.229151 35.121292 35.020772 34.926356 34.839813 34.759935
34.688355 34.623896 34.568049 34.519671 34.480104 34.448244 34.425286 34.410162
34.403919 34.405533 34.415903 34.434046 34.460722 34.494988 34.537468 34.587262
34.644864 34.709415 34.781286 34.859659 34.944790 35.035900 35.133137 35.235762
35.343824 35.456622 35.574112 35.695633 35.821056 35.949759 36.081537 36.215808
36.352296 36.490462 36.629967 36.770315 36.911111
37.288889 37.140169 36.991950 36.844672 36.698894 36.554987 36.413563 36.274921
36.139720 36.008178 35.881004 35.758326 35.640898 35.528751 35.422685 35.322625
35.229415 35.142866 35.063867 34.992105 34.928515 34.872652 34.825495 34.786460
34.756571 34.735098 34.723107 34.719717 34.726036 34.741025 34.765835 34.799263
34.842501 34.894183 34.955538 35.025036 35.103942 35.190563 35.286198 35.388998
35.500291 35.618081 35.743721 35.875081 36.013536 36.156836 36.306375 36.459804
36.618532 36.780129 36.946018 37.113715 37.284654 37.456320 37.630156 37.803644
37.978234 38.151429 38.324684 38.495551 38.665485 38.832110 38.996875 39.157502
39.315424 39.468481 39.618082 39.762202 39.902213 40.036240 40.165606 40.288594
40.406466 40.517672 40.623394 40.722255 40.815343 40.901456 40.981574 41.054669
41.121597 41.181506 41.235115 41.281746 41.321971 41.355281 41.382093 41.402069
41.415461 41.422100 41.422070 41.415370 41.401916 41.381876 41.354995 41.321611
41.281307 41.234589 41.180884 41.120870 41.053824 40.980599 40.900336 40.814061
40.720791 40.621730 40.515783 40.404329 40.286180 40.162885 40.033179 39.898776
39.758350 39.613772 39.463668 39.310058 39.151530 38.990240 38.824751 38.657336
38.486545 38.314745 38.140480 37.966193 37.790424 37.615666 37.440465 37.267335
37.094828 36.925455 36.757780 36.594283 36.433538 36.277971 36.126172 35.980487
35.839523 35.705527 35.577125 35.456448 35.342144 35.236209 35.137322 35.047332
34.964947 34.891865 34.826827 34.771371 34.724276 34.686918 34.658115 34.639083
34.628681 34.627965 34.635838 34.653198 34.678995 34.713976 34.757135 34.809075
34.868834 34.936880 35.012295 35.095416 35.185370 35.282374 35.385598 35.495145
35.610229 35.730850 35.856262 35.986370 36.120472 36.258386 36.399453 36.543410
36.689644 36.837820 36.987372 37.137900 37.288889
37.666667 37.508138 37.350120 37.193191 37.037792 36.884559 36.733858 36.586379
36.442405 36.302681 36.167396 36.037346 35.912621 35.794066 35.681661 35.576300
35.477846 35.387239 35.304215 35.229765 35.163483 35.106411 35.057998 35.019332
34.989708 34.970262 34.960125 34.960483 34.970296 34.990795 35.020768 35.061487
35.111563 35.172311 35.242161 35.322466 35.411480 35.510590 35.617877 35.734757
35.859147 35.992491 36.132549 36.280789 36.434834 36.596169 36.762296 36.934718
37.110837 37.292170 37.476046 37.663992 37.853290 38.045479 38.237822 38.431865
38.624882 38.818428 39.009814 39.200598 39.388162 39.574058 39.755766 39.934828
40.108842 40.279332 40.444034 40.604444 40.758455 40.907517 41.049694 41.186379
41.315813 41.439315 41.555311 41.665029 41.767084 41.862596 41.950367 42.031394
42.104669 42.171047 42.229708 42.281354 42.325349 42.362230 42.391546 42.413660
42.428299 42.435648 42.435616 42.428202 42.413496 42.391314 42.361924 42.324964
42.280884 42.229145 42.170382 42.103890 42.030490 41.949323 41.861396 41.765711
41.663463 41.553529 41.437293 41.313524 41.183794 41.046780 40.904239 40.754774
40.600319 40.439418 40.274177 40.103094 39.928432 39.748659 39.566176 39.379433
39.190950 38.999167 38.806699 38.611983 38.417703 38.222299 38.028494 37.834735
37.643758 37.454016 37.268227 37.084858 36.906577 36.731865 36.563316 36.399427
36.242694 36.091630 35.948613 35.812176 35.684560 35.564323 35.453552 35.350834
35.258093 35.173948 35.100154 35.035363 34.981157 34.936229 34.901982 34.877153
34.862969 34.858215 34.863944 34.878987 34.904234 34.938562 34.982700 35.035575
35.097763 35.168241 35.247440 35.334384 35.429369 35.531469 35.640852 35.756639
35.878882 36.006748 36.140181 36.278396 36.421238 36.567968 36.718342 36.871668
37.027622 37.185562 37.345088 37.505612 37.666667
38.044444 37.876257 37.708658 37.542167 37.377438 37.214911 37.055304 36.898970
36.746686 36.598710 36.455877 36.318342 36.186992 36.061871 35.943921 35.833061
35.730286 35.635385 35.549405 35.471990 35.404242 35.345651 35.297372 35.258732
35.230939 35.213147 35.206616 35.210321 35.225571 35.251156 35.288431 35.335995
35.395248 35.464597 35.545481 35.636113 35.737969 35.849073 35.970933 36.101388
36.241973 36.390353 36.548089 36.712683 36.885716 37.064549 37.250779 37.441646
37.638761 37.839269 38.044792 38.252410 38.463755 38.675870 38.890398 39.104377
39.319458 39.532710 39.745787 39.955819 40.164463 40.368939 40.570899 40.767684
40.960932 41.148128 41.330885 41.506851 41.677605 41.840971 41.998479 42.148142
42.291421 42.426528 42.554836 42.674761 42.787570 42.891883 42.988841 43.077270