# vtk DataFile Version 3.0
Steady-state temperature (Jacobi)
ASCII
DATASET STRUCTURED_POINTS
DIMENSIONS 181 181 1
ORIGIN 0.0 0.0 0.0
SPACING 0.05 0.05 1.0
POINT_DATA 32761
SCALARS Temperature float 1
LOOKUP_TABLE default
32.000000 32.000000 32.000000 32.000000 32.000000 32.000000 32.000000 32.000000
32.000000 32.000000 32.000000 32.000000 32.000000 32.000000 32.000000 32.000000
32.000000 32.000000 32.000000 32.000000 32.000000 32.000000 32.000000 32.000000
32.000000 32.000000 32.000000 32.000000 32.000000 32.000000 32.000000 32.000000
32.000000 32.000000 32.000000 32.000000 32.000000 32.000000 32.000000 32.000000
32.000000 32.000000 32.000000 32.000000 32.000000 32.000000 32.000000 32.000000
32.000000 32.000000 32.000000 32.000000 32.000000 32.000000 32.000000 32.000000
32.000000 32.000000 32.000000 32.000000 32.000000 32.000000 32.000000 32.000000
32.000000 32.000000 32.000000 32.000000 32.000000 32.000000 32.000000 32.000000
32.000000 32.000000 32.000000 32.000000 32.000000 32.000000 32.000000 32.000000
32.000000 32.000000 32.000000 32.000000 32.000000 32.000000 32.000000 32.000000
32.000000 32.000000 32.000000 32.000000 32.000000 32.000000 32.000000 32.000000
32.000000 32.000000 32.000000 32.000000 32.000000 32.000000 32.000000 32.000000
32.000000 32.000000 32.000000 32.000000 32.000000 32.000000 32.000000 32.000000
32.000000 32.000000 32.000000 32.000000 32.000000 32.000000 32.000000 32.000000
32.000000 32.000000 32.000000 32.000000 32.000000 32.000000 32.000000 32.000000
32.000000 32.000000 32.000000 32.000000 32.000000 32.000000 32.000000 32.000000
32.000000 32.000000 32.000000 32.000000 32.000000 32.000000 32.000000 32.000000
32.000000 32.000000 32.000000 32.000000 32.000000 32.000000 32.000000 32.000000
32.000000 32.000000 32.000000 32.000000 32.000000 32.000000 32.000000 32.000000
32.000000 32.000000 32.000000 32.000000 32.000000 32.000000 32.000000 32.000000
32.000000 32.000000 32.000000 32.000000 32.000000 32.000000 32.000000 32.000000
32.000000 32.000000 32.000000 32.000000 32.000000
32.377778 32.403283 32.428797 32.454333 32.479899 32.505506 32.531163 32.556880
32.582665 32.608530 32.634479 32.660524 32.686668 32.712924 32.739291 32.765782
32.792394 32.819139 32.846013 32.873027 32.900172 32.927460 32.954880 32.982442
33.010132 33.037957 33.065903 33.093976 33.122157 33.150450 33.178835 33.207314
33.235862 33.264482 33.293146 33.321852 33.350573 33.379304 33.408015 33.436700
33.465326 33.493886 33.522345 33.550694 33.578897 33.606943 33.634795 33.662442
33.689845 33.716991 33.743843 33.770386 33.796583 33.822420 33.847859 33.872887
33.897467 33.921585 33.945205 33.968317 33.990884 34.012897 34.034322 34.055149
34.075349 34.094912 34.113811 34.132037 34.149567 34.166392 34.182492 34.197860
34.212477 34.226340 34.239430 34.251745 34.263270 34.274003 34.283932 34.293055
34.301363 34.308855 34.315522 34.321365 34.326377 34.330558 34.333904 34.336415
34.338089 34.338926 34.338924 34.338085 34.336408 34.333894 34.330546 34.326364
34.321351 34.315509 34.308843 34.301354 34.293050 34.283932 34.274011 34.263286
34.251773 34.239471 34.226397 34.212553 34.197956 34.182612 34.166540 34.149745
34.132250 34.114061 34.095204 34.075688 34.055539 34.034767 34.013402 33.991456
33.968959 33.945925 33.922388 33.898359 33.873876 33.848952 33.823623 33.797904
33.771834 33.745424 33.718715 33.691720 33.664478 33.637002 33.609329 33.581473
33.553471 33.525333 33.497096 33.468770 33.440389 33.411962 33.383521 33.355072
33.326647 33.298249 33.269908 33.241625 33.213426 33.185313 33.157307 33.129408
33.101637 33.073989 33.046483 33.019113 32.991895 32.964821 32.937905 32.911137
32.884528 32.858067 32.831762 32.805602 32.779591 32.753718 32.727985 32.702380
32.676902 32.651538 32.626287 32.601134 32.576077 32.551101 32.526201 32.501364
32.476582 32.451842 32.427136 32.402451 32.377778
32.755556 32.806572 32.857610 32.908688 32.959829 33.011049 33.062373 33.113813
33.165395 33.217128 33.269039 33.321134 33.373438 33.425953 33.478704 33.531689
33.584932 33.638427 33.692195 33.746226 33.800540 33.855120 33.909985 33.965112
34.020518 34.076175 34.132096 34.188248 34.244640 34.301234 34.358036 34.415001
34.472133 34.529381 34.586745 34.644168 34.701647 34.759121 34.816582 34.873964
34.931257 34.988390 35.045349 35.102062 35.158509 35.214617 35.270363 35.325672
35.380519 35.434827 35.488572 35.541674 35.594108 35.645797 35.696714 35.746784
35.795981 35.844230 35.891508 35.937742 35.982911 36.026947 36.069828 36.111493
36.151921 36.191055 36.228878 36.265338 36.300420 36.334076 36.366296 36.397036
36.426289 36.454016 36.480211 36.504843 36.527906 36.549373 36.569241 36.587489
36.604113 36.619096 36.632437 36.644122 36.654151 36.662513 36.669209 36.674231
36.677580 36.679253 36.679250 36.677571 36.674216 36.669189 36.662490 36.654125
36.644095 36.632411 36.619073 36.604095 36.587479 36.569243 36.549389 36.527940
36.504899 36.480294 36.454130 36.426440 36.397229 36.366537 36.334372 36.300776
36.265763 36.229379 36.191640 36.152599 36.112272 36.070719 36.027958 35.984054
35.939028 35.892948 35.845837 35.797767 35.748763 35.698900 35.648204 35.596751
35.544569 35.491735 35.438276 35.384271 35.329744 35.274776 35.219389 35.163662
35.107616 35.051326 34.994811 34.938145 34.881344 34.824476 34.767555 34.710647
34.653759 34.596953 34.540234 34.483659 34.427228 34.370992 34.314949 34.259144
34.203570 34.148268 34.093227 34.038482 33.984020 33.929868 33.876010 33.822471
33.769229 33.716304 33.663673 33.611350 33.559310 33.507561 33.456078 33.404864
33.353892 33.303162 33.252645 33.202337 33.152210 33.102255 33.052444 33.002765
32.953191 32.903706 32.854286 32.804910 32.755556
33.133333 33.209878 33.286452 33.363090 33.439817 33.516670 33.593671 33.670856
33.748244 33.825873 33.903754 33.981927 34.060397 34.139204 34.218346 34.297861
34.377743 34.458025 34.538696 34.619787 34.701278 34.783197 34.865515 34.948260
35.031393 35.114936 35.198843 35.283133 35.367750 35.452707 35.537942 35.623461
35.709194 35.795141 35.881224 35.967438 36.053697 36.139990 36.226225 36.312384
36.398369 36.484157 36.569644 36.654803 36.739524 36.823776 36.907447 36.990501
37.072824 37.154377 37.235045 37.314788 37.393490 37.471111 37.547536 37.622725
37.696566 37.769020 37.839980 37.909407 37.977200 38.043325 38.107683 38.170244
38.230918 38.289678 38.346440 38.401182 38.453828 38.504359 38.552707 38.598858
38.642752 38.684378 38.723683 38.760659 38.795262 38.827487 38.857296 38.884687
38.909627 38.932117 38.952132 38.969671 38.984716 38.997266 39.007311 39.014849
39.019873 39.022384 39.022380 39.019860 39.014827 39.007282 38.997232 38.984677
38.969631 38.952093 38.932083 38.909601 38.884672 38.857299 38.827511 38.795314
38.760744 38.723808 38.684550 38.642980 38.599149 38.553070 38.504804 38.454364
38.401821 38.347193 38.290557 38.231936 38.171414 38.109020 38.044843 37.978917
37.911338 37.842141 37.771432 37.699247 37.625695 37.550815 37.474723 37.397456
37.319132 37.239791 37.159552 37.078453 36.996612 36.914068 36.830938 36.747255
36.663135 36.578610 36.493791 36.408703 36.323455 36.238068 36.152644 36.067198
35.981826 35.896538 35.811423 35.726484 35.641804 35.557379 35.473283 35.389508
35.306120 35.223104 35.140518 35.058342 34.976625 34.895344 34.814537 34.734178
34.654297 34.574864 34.495901 34.417374 34.339299 34.261638 34.184399 34.107543
34.031072 33.954945 33.879157 33.803667 33.728463 33.653505 33.578775 33.504233
33.429858 33.355611 33.281464 33.207382 33.133333
33.511111 33.613204 33.715339 33.817555 33.919898 34.022400 34.125109 34.228054
34.331284 34.434820 34.538713 34.642975 34.747658 34.852767 34.958351 35.064407
35.170982 35.278065 35.385699 35.493863 35.602596 35.711868 35.821713 35.932089
36.043028 36.154474 36.266453 36.378900 36.491833 36.605176 36.718940 36.833038
36.947474 37.062148 37.177058 37.292095 37.407246 37.522394 37.637519 37.752493
37.867291 37.981775 38.095912 38.209560 38.322680 38.435122 38.546843 38.657689
38.767612 38.876457 38.984173 39.090603 39.195694 39.299291 39.401342 39.501692
39.600291 39.696991 39.791740 39.884397 39.974916 40.063161 40.149090 40.232576
40.313582 40.391992 40.467771 40.540814 40.611094 40.678515 40.743054 40.804627
40.863216 40.918747 40.971207 41.020533 41.066715 41.109700 41.149482 41.186016
41.219299 41.249295 41.276002 41.299394 41.319470 41.336208 41.349611 41.359664
41.366368 41.369717 41.369711 41.366351 41.359636 41.349573 41.336163 41.319419
41.299342 41.275952 41.249250 41.219265 41.185998 41.149487 41.109734 41.066786
41.020649 40.971376 40.918979 40.863521 40.805017 40.743540 40.679110 40.611812
40.541669 40.468777 40.393166 40.314942 40.234139 40.150875 40.065189 39.977207
39.886974 39.794626 39.700210 39.603869 39.505655 39.405718 39.304110 39.200985
39.096398 38.990505 38.883360 38.775121 38.665840 38.555675 38.444673 38.332992
38.220674 38.107871 37.994622 37.881074 37.767258 37.653315 37.539269 37.425252
37.311282 37.197482 37.083861 36.970533 36.857499 36.744861 36.632614 36.520850
36.409554 36.298807 36.188589 36.078967 35.969916 35.861492 35.753662 35.646472
35.539884 35.433933 35.328575 35.223836 35.119668 35.016086 34.913039 34.810534
34.708517 34.606984 34.505883 34.405201 34.304883 34.204910 34.105228 34.005811
33.906606 33.807579 33.708682 33.609875 33.511111
33.888889 34.016561 34.144283 34.272112 34.400092 34.528283 34.656722 34.785471
34.914561 35.044056 35.173975 35.304384 35.435294 35.566769 35.698809 35.831476
35.964761 36.098720 36.233333 36.368654 36.504648 36.641365 36.778756 36.916865
37.055630 37.195088 37.335163 37.475884 37.617161 37.759014 37.901340 38.044148
38.187323 38.330864 38.474642 38.618647 38.762736 38.906891 39.050956 39.194903
39.338565 39.481907 39.624752 39.767055 39.908632 40.049432 40.189264 40.328069
40.465656 40.601959 40.736784 40.870065 41.001607 41.131341 41.259075 41.384743
41.508155 41.629247 41.747838 41.863864 41.977154 42.087651 42.195191 42.299722
42.401095 42.499264 42.594089 42.685532 42.773469 42.857867 42.938614 43.015685
43.088981 43.158484 43.224108 43.285839 43.343605 43.397396 43.447152 43.492867
43.534492 43.572024 43.605424 43.634691 43.659796 43.680738 43.697498 43.710075
43.718458 43.722648 43.722641 43.718437 43.710040 43.697451 43.680682 43.659734
43.634627 43.605362 43.571970 43.534452 43.492848 43.447160 43.397441 43.343696
43.285986 43.224322 43.158778 43.089367 43.016176 42.939225 42.858615 42.774370
42.686605 42.595351 42.500736 42.402799 42.301681 42.197427 42.090190 41.980023
41.867090 41.751449 41.633276 41.512632 41.389702 41.264551 41.137370 41.008226
40.877315 40.744704 40.610593 40.475047 40.338264 40.200309 40.061377 39.921527
39.780952 39.639705 39.497973 39.355800 39.213365 39.070706 38.927991 38.785249
38.642639 38.500178 38.358013 38.216153 38.074732 37.933747 37.793320 37.653439
37.514210 37.375614 37.237741 37.100563 36.964159 36.828489 36.693620 36.559505
36.426195 36.293639 36.161874 36.030843 35.900571 35.770996 35.642131 35.513910
35.386335 35.259339 35.132912 35.006985 34.881539 34.756506 34.631856 34.507522
34.383468 34.259628 34.135957 34.012394 33.888889
34.266667 34.419953 34.573303 34.726775 34.880439 35.034344 35.188565 35.343142
35.498152 35.653624 35.809638 35.966213 36.123425 36.281283 36.439863 36.599159
36.759244 36.920099 37.081792 37.244290 37.407655 37.571838 37.736896 37.902762
38.069485 38.236983 38.405294 38.574322 38.744093 38.914493 39.085541 39.257103
39.429186 39.601643 39.774466 39.947494 40.120707 40.293928 40.467126 40.640110
40.812839 40.985107 41.156864 41.327895 41.498139 41.667371 41.835524 42.002367
42.167826 42.331667 42.493809 42.654019 42.812214 42.968161 43.121777 43.272833
43.421248 43.566800 43.709411 43.848868 43.985099 44.117901 44.247209 44.372834
44.494717 44.612684 44.726685 44.836561 44.942270 45.043670 45.140727 45.233315
45.321407 45.404894 45.483756 45.557901 45.627313 45.691914 45.751697 45.806594
45.856603 45.901670 45.941794 45.976935 46.007092 46.032235 46.052367 46.067467
46.077537 46.082568 46.082559 46.077512 46.067426 46.052312 46.032170 46.007019
45.976860 45.941722 45.901608 45.856557 45.806574 45.751710 45.691972 45.627427
45.558082 45.484018 45.405251 45.321874 45.233909 45.141466 45.044573 44.943358
44.837854 44.728206 44.614457 44.496768 44.375190 44.249900 44.120955 43.988549
43.852746 43.713753 43.571642 43.426628 43.278791 43.128355 42.975402 42.820165
42.662725 42.503321 42.342034 42.179104 42.014608 41.848786 41.681712 41.513621
41.344580 41.174817 41.004394 40.833529 40.662273 40.490835 40.319256 40.147732
39.976292 39.805120 39.634230 39.463793 39.293813 39.124441 38.955671 38.787639
38.620325 38.453849 38.288180 38.123420 37.959529 37.796593 37.634561 37.473502
37.313358 37.154181 36.995905 36.838568 36.682097 36.526515 36.371746 36.217796
36.064587 35.912112 35.760291 35.609103 35.458468 35.308355 35.158683 35.009412
34.860461 34.711782 34.563297 34.414949 34.266667
34.644444 34.823389 35.002405 35.181572 35.360953 35.540632 35.720663 35.901134
36.082089 36.263616 36.445746 36.628571 36.812107 36.996443 37.181583 37.367612
37.554519 37.742385 37.931180 38.120982 38.311742 38.503531 38.696281 38.890055
39.084767 39.280467 39.477051 39.674559 39.872866 40.072000 40.271817 40.472330
40.673377 40.874957 41.076888 41.279157 41.481562 41.684077 41.886484 42.088741
42.290616 42.492055 42.692810 42.892817 43.091817 43.289734 43.486301 43.681435
43.874861 44.066489 44.256044 44.443430 44.628372 44.810772 44.990360 45.167037
45.340540 45.510774 45.677484 45.840582 45.999823 46.155127 46.306265 46.453162
46.595608 46.733538 46.866758 46.995213 47.118730 47.237262 47.350654 47.458871
47.561777 47.659346 47.751459 47.838098 47.919164 47.994644 48.064454 48.128589
48.186981 48.239627 48.286473 48.327519 48.362726 48.392094 48.415595 48.433232
48.444987 48.450862 48.450852 48.444958 48.433185 48.415533 48.392019 48.362643
48.327434 48.286392 48.239557 48.186932 48.128570 48.064475 47.994717 47.919302
47.838316 47.751771 47.659769 47.562330 47.459572 47.351524 47.238323 47.120006
46.996730 46.868541 46.735616 46.598010 46.455921 46.309412 46.158700 46.003857
45.845116 45.682559 45.516433 45.346826 45.173998 44.998044 44.819231 44.637657
44.453598 44.267151 44.078596 43.888028 43.695727 43.501784 43.306477 43.109890
42.912294 42.713766 42.514568 42.314765 42.114610 41.914155 41.713639 41.513103
41.312768 41.112662 40.912990 40.713765 40.515173 40.317215 40.120057 39.923685
39.728247 39.533715 39.340216 39.147710 38.956305 38.765950 38.576732 38.388588
38.201589 38.015661 37.830857 37.647095 37.464410 37.282714 37.102024 36.922249
36.743389 36.565349 36.388114 36.211589 36.035744 35.860484 35.685767 35.511497
35.337623 35.164052 34.990720 34.817542 34.644444
35.022222 35.226872 35.431610 35.636512 35.841673 36.047161 36.253076 36.459472
36.666453 36.874061 37.082401 37.291501 37.501463 37.712302 37.924116 38.136903
38.350759 38.565660 38.781698 38.998830 39.217139 39.436562 39.657174 39.878888
40.101770 40.325711 40.550764 40.776797 41.003850 41.231770 41.460579 41.690103
41.920349 42.151120 42.382408 42.613993 42.845852 43.077745 43.309632 43.541254
43.772556 44.003263 44.233304 44.462390 44.690439 44.917149 45.142426 45.365960
45.587649 45.807177 46.024436 46.239109 46.451084 46.660046 46.865882 47.068284
47.267140 47.462153 47.653215 47.840040 48.022529 48.200412 48.373599 48.541837
48.705046 48.862995 49.015614 49.162695 49.304178 49.439877 49.569746 49.693619
49.811461 49.923128 50.028595 50.127739 50.220544 50.306906 50.386816 50.460188
50.527019 50.587241 50.640852 50.687801 50.728089 50.761678 50.788570 50.808740
50.822191 50.828910 50.828899 50.822158 50.808688 50.788500 50.761595 50.727998
50.687708 50.640765 50.587167 50.526969 50.460172 50.386846 50.306996 50.220709
50.127995 50.028959 49.923620 49.812101 49.694429 49.570750 49.441100 49.305647
49.164438 49.017663 48.865380 48.707803 48.545001 48.377208 48.204507 48.027152
47.845234 47.659027 47.468632 47.274338 47.076252 46.874677 46.669726 46.461709
46.250742 46.037144 45.821026 45.602711 45.382307 45.160135 44.936297 44.711108
44.484663 44.257268 44.029005 43.800170 43.570832 43.341272 43.111545 42.881915
42.652422 42.423310 42.194603 41.966525 41.739084 41.512482 41.286711 41.061950
40.838176 40.615546 40.394019 40.173732 39.954629 39.736824 39.520250 39.304996
39.090985 38.878285 38.666809 38.456603 38.247573 38.039745 37.833017 37.627398
37.422780 37.219156 37.016414 36.814530 36.613392 36.412959 36.213122 36.013826
35.814963 35.616466 35.418232 35.220183 35.022222
35.400000 35.630414 35.860921 36.091625 36.322610 36.553983 36.785817 37.018225
37.251265 37.485053 37.719632 37.955117 38.191533 38.428997 38.667513 38.907194
39.148025 39.390113 39.633422 39.878050 40.123940 40.371180 40.619687 40.869541
41.120634 41.373031 41.626599 41.881388 42.137242 42.394193 42.652058 42.910855
43.170374 43.430613 43.691340 43.952533 44.213937 44.475512 44.736979 44.998282
45.259120 45.519420 45.778864 46.037362 46.294582 46.550422 46.804535 47.056808
47.306889 47.554654 47.799746 48.042038 48.281173 48.517020 48.749227 48.977665
49.201991 49.422080 49.637600 49.848433 50.054266 50.254989 50.450309 50.640126
50.824170 51.002355 51.174433 51.340332 51.499829 51.652867 51.799246 51.938923
52.071723 52.197616 52.316451 52.428207 52.532758 52.630091 52.720101 52.802782
52.878050 52.945904 53.006276 53.059169 53.104534 53.142372 53.172650 53.195371
53.210516 53.218085 53.218073 53.210480 53.195314 53.172575 53.142282 53.104435
53.059069 53.006182 52.945826 52.878000 52.802771 52.720143 52.630201 52.532953
52.428505 52.316871 52.198180 52.072455 51.939846 51.800388 51.654255 51.501495
51.342307 51.176751 51.005053 50.827286 50.643701 50.454384 50.259611 50.059481
49.854292 49.644154 49.429385 49.210104 48.986647 48.759138 48.527927 48.293143
48.055143 47.814059 47.570252 47.323850 47.075217 46.824474 46.571981 46.317852
46.062438 45.805840 45.548399 45.290203 45.031577 44.772593 44.513558 44.254527
43.995787 43.737374 43.479553 43.222343 42.965983 42.710473 42.456028 42.202629
41.950468 41.699506 41.449908 41.201622 40.954785 40.709329 40.465367 40.222818
39.981770 39.742128 39.503956 39.267152 39.031755 38.797654 38.564868 38.333278
38.102883 37.873561 37.645289 37.417945 37.191488 36.965794 36.740808 36.516406
36.292520 36.069029 35.845851 35.622873 35.400000
35.777778 36.034014 36.290360 36.546916 36.803802 37.061104 37.318948 37.577406
37.836607 38.096609 38.357541 38.619442 38.882442 39.146559 39.411922 39.678526
39.946493 40.215798 40.486555 40.758713 41.032377 41.307470 41.584087 41.862122
42.141656 42.422557 42.704889 42.988492 43.273413 43.559463 43.846670 44.134816
44.423909 44.713704 45.004189 45.295089 45.586372 45.877739 46.169136 46.460238
46.750973 47.040995 47.330211 47.618258 47.905027 48.190139 48.473469 48.754629
49.033481 49.309631 49.582934 49.852992 50.119657 50.382532 50.641469 50.896080
51.146220 51.391511 51.631815 51.866772 52.096253 52.319919 52.537653 52.749139
52.954274 53.152769 53.344535 53.529312 53.707027 53.877447 54.040515 54.196027
54.343940 54.484078 54.616411 54.740790 54.857195 54.965501 55.065699 55.157687
55.241462 55.316942 55.384128 55.442960 55.493439 55.535521 55.569211 55.594479
55.611329 55.619746 55.619733 55.611291 55.594418 55.569130 55.535425 55.493334
55.442854 55.384031 55.316863 55.241414 55.157684 55.065756 54.965634 54.857422
54.741132 54.616891 54.484719 54.344767 54.197068 54.041799 53.879005 53.708894
53.531523 53.347128 53.155784 52.957754 52.753129 52.542200 52.325073 52.102068
51.873301 51.639118 51.399647 51.155254 50.906079 50.652502 50.394670 50.132978
49.867573 49.598859 49.326982 49.052349 48.775102 48.495646 48.214115 47.930905
47.646141 47.360208 47.073215 46.785533 46.497254 46.208730 45.920034 45.631497
45.343172 45.055365 44.768107 44.481681 44.196095 43.911604 43.628197 43.346099
43.065279 42.785933 42.508012 42.231682 41.956876 41.683733 41.412168 41.142292
40.874008 40.607397 40.342349 40.078922 39.816995 39.556599 39.297606 39.040024
38.783718 38.528674 38.274754 38.021924 37.770043 37.519057 37.268830 37.019288
36.770298 36.521771 36.273580 36.025623 35.777778
36.155556 36.437682 36.719926 37.002415 37.285252 37.568575 37.852472 38.137085
38.422486 38.708820 38.996140 39.284591 39.574206 39.865129 40.157368 40.451062
40.746197 41.042904 41.341143 41.641034 41.942511 42.245681 42.550449 42.856910
43.164935 43.474605 43.785760 44.098461 44.412518 44.727971 45.044599 45.362419
45.681179 46.000875 46.321221 46.642191 46.963470 47.285007 47.606461 47.927758
48.248529 48.568680 48.887819 49.205831 49.522307 49.837113 50.149824 50.460294
50.768087 51.073044 51.374725 51.672966 51.967325 52.257635 52.543461 52.824637
53.100739 53.371606 53.636832 53.896264 54.149517 54.396452 54.636708 54.870161
55.096478 55.315552 55.527081 55.730976 55.926966 56.114979 56.294777 56.466307
56.629360 56.783898 56.929744 57.066874 57.195139 57.314525 57.424910 57.526289
57.618565 57.701737 57.775730 57.840548 57.896135 57.942495 57.979590 58.007425
58.025977 58.035250 58.035236 58.025937 58.007360 57.979505 57.942394 57.896026
57.840440 57.775631 57.701660 57.618522 57.526297 57.424983 57.314684 57.195402
57.067266 56.930287 56.784619 56.630286 56.467469 56.296207 56.116712 55.929038
55.733428 55.529953 55.318890 55.100327 54.874572 54.641732 54.402145 54.155935
53.903470 53.644888 53.380580 53.110700 52.835660 52.555621 52.271013 51.982002
51.689031 51.392266 51.092156 50.788865 50.482841 50.174243 49.863512 49.550797
49.236529 48.920840 48.604150 48.286571 47.968504 47.650042 47.331561 47.013134
46.695112 46.377543 46.060750 45.744759 45.429861 45.116060 44.803616 44.492508
44.182967 43.874948 43.568650 43.264008 42.961189 42.660110 42.360905 42.063475
41.767923 41.474134 41.182184 40.891945 40.603463 40.316600 40.031377 39.747648
39.465407 39.184504 38.904910 38.626470 38.349135 38.072751 37.797247 37.522471
37.248335 36.974692 36.701437 36.428431 36.155556
36.533333 36.841419 37.149640 37.458119 37.767001 38.076394 38.386451 38.697261
39.008983 39.321687 39.635532 39.950568 40.266953 40.584712 40.904000 41.224817
41.547312 41.871455 42.197388 42.525050 42.854572 43.185863 43.519037 43.853973
44.190767 44.529264 44.869542 45.211410 45.554926 45.899864 46.246257 46.593846
46.942639 47.292342 47.642938 47.994099 48.345782 48.697627 49.049564 49.401204
49.752453 50.102894 50.452409 50.800559 51.147203 51.491884 51.834445 52.174411
52.511612 52.845565 53.176089 53.502699 53.825207 54.143134 54.456290 54.764203
55.066690 55.363295 55.653842 55.937896 56.215295 56.485628 56.748750 57.004280
57.252091 57.491836 57.723407 57.946491 58.161002 58.366662 58.563405 58.750988
58.929363 59.098323 59.257836 59.407726 59.547977 59.678443 59.799117 59.909882
60.010738 60.101594 60.182454 60.253249 60.313986 60.364615 60.405144 60.435539
60.455808 60.465934 60.465919 60.455766 60.435472 60.405055 60.364511 60.313875
60.253139 60.182356 60.101520 60.010704 59.909903 59.799212 59.678631 59.548281
59.408170 59.258446 59.099127 58.930393 58.752276 58.564986 58.368575 58.163286
57.949189 57.726565 57.495501 57.256316 57.009117 56.754257 56.491864 56.222324
55.945784 55.662659 55.373112 55.077586 54.776255 54.469584 54.157755 53.841248
53.520252 53.195254 52.866442 52.534309 52.199036 51.861114 51.520713 51.178314
50.834076 50.488464 50.141618 49.793985 49.445684 49.097139 48.748444 48.399996
48.051864 47.704417 47.357695 47.012036 46.667456 46.324255 45.982425 45.642232
45.303642 44.966887 44.631907 44.298901 43.967787 43.638728 43.311624 42.986602
42.663545 42.342548 42.023478 41.706400 41.391167 41.077813 40.766183 40.456283
40.147949 39.841161 39.535751 39.231674 38.928761 38.626944 38.326054 38.026004
37.726628 37.427820 37.129421 36.831308 36.533333
36.911111 37.245234 37.579499 37.914060 38.249043 38.584612 38.920876 39.258006
39.596090 39.935302 40.275709 40.617486 40.960674 41.305446 41.651817 41.999953
42.349840 42.701638 43.055301 43.410975 43.768584 44.128258 44.489888 44.853586
45.219207 45.586844 45.956312 46.327685 46.700740 47.075525 47.451779 47.829524
48.208460 48.588582 48.969553 49.351339 49.733567 50.116173 50.498751 50.881208
51.263107 51.644327 52.024404 52.403192 52.780202 53.155268 53.527880 53.897856
54.264673 54.628134 54.987709 55.343193 55.694057 56.040092 56.380776 56.715901
57.044961 57.367754 57.683794 57.992893 58.294590 58.588713 58.874834 59.152799
59.422216 59.682953 59.934655 60.177214 60.410313 60.633868 60.847601 61.051451
61.245178 61.428740 61.601933 61.764734 61.916973 62.058640 62.189597 62.309843
62.419270 62.517882 62.605597 62.682422 62.748298 62.803233 62.847185 62.880163
62.902143 62.913129 62.913114 62.902099 62.880094 62.847094 62.803127 62.748185
62.682312 62.605501 62.517815 62.419246 62.309881 62.189716 62.058862 61.917321
61.765235 61.602615 61.429634 61.246317 61.052871 60.849339 60.635966 60.412813
60.180164 59.938103 59.686952 59.426821 59.158069 58.880829 58.595500 58.302235
58.001469 57.693376 57.378422 57.056796 56.728991 56.395210 56.055965 55.711467
55.362243 55.008504 54.650785 54.289295 53.924569 53.556805 53.186533 52.813938
52.439537 52.063496 51.686314 51.308134 50.929432 50.550326 50.171263 49.792335
49.413958 49.036193 48.659423 48.283681 47.909312 47.536321 47.165015 46.795370
46.427656 46.061822 45.698099 45.336411 44.976951 44.619620 44.264573 43.911692
43.561095 43.212645 42.866426 42.522286 42.180276 41.840230 41.502169 41.165917
40.831464 40.498631 40.167378 39.837522 39.508998 39.181624 38.855311 38.529878
38.205216 37.881149 37.557551 37.234252 36.911111
37.288889 37.649125 38.009523 38.370229 38.731417 39.093216 39.455807 39.819302
40.183886 40.549646 40.916772 41.285325 41.655493 42.027312 42.400963 42.776452
43.153954 43.533441 43.915079 44.298805 44.684771 45.072876 45.463256 45.855774
46.250542 46.647386 47.046394 47.447352 47.850323 48.255049 48.661567 49.069578
49.479088 49.889756 50.301559 50.714116 51.127369 51.540901 51.954622 52.368077
52.781147 53.193344 53.604520 54.014157 54.422082 54.827754 55.230976 55.631190
56.028182 56.421381 56.810562 57.195150 57.574913 57.949281 58.318019 58.680570
59.036706 59.385886 59.727895 60.062218 60.388657 60.706728 61.016254 61.316789
61.608178 61.890017 62.162176 62.424294 62.676268 62.917779 63.148750 63.368907
63.578194 63.776378 63.963426 64.139142 64.303512 64.456374 64.597726 64.727441
64.845525 64.951879 65.046513 65.129354 65.200414 65.259641 65.307047 65.342599
65.366304 65.378147 65.378132 65.366260 65.342528 65.306956 65.259535 65.200302
65.129245 65.046422 64.951820 64.845515 64.727499 64.597873 64.456632 64.303908
64.139704 63.964184 63.777365 63.579447 63.370462 63.150651 62.920067 62.678991
62.427502 62.165922 61.894356 61.613171 61.322497 61.022745 60.714071 60.396926
60.071489 59.738250 59.397410 59.049488 58.694703 58.333601 57.966412 57.593701
57.215702 56.832995 56.445812 56.054736 55.659994 55.262165 54.861461 54.458453
54.053336 53.646660 53.238599 52.829679 52.420049 52.010206 51.600268 51.190702
50.781593 50.373371 49.966091 49.560143 49.155551 48.752664 48.351473 47.952288
47.555068 47.160082 46.767261 46.376831 45.988697 45.603045 45.219756 44.838976
44.460564 44.084628 43.711011 43.339782 42.970768 42.604005 42.239309 41.876681
41.515929 41.157024 40.799767 40.444101 40.089827 39.736859 39.385000 39.034140
38.684086 38.334709 37.985820 37.637273 37.288889
37.666667 38.053101 38.439703 38.826655 39.214108 39.602254 39.991224 40.381219
40.772346 41.164809 41.558691 41.954196 42.351379 42.750442 43.151407 43.554470
43.959621 44.367045 44.776697 45.188748 45.603115 46.019951 46.439135 46.860800
47.284781 47.711188 48.139815 48.570744 49.003723 49.438807 49.875700 50.314423
50.754636 51.196326 51.639109 52.082939 52.527387 52.972373 53.417425 53.862430
54.306879 54.750624 55.193123 55.634197 56.073275 56.510151 56.944231 57.375287
57.802708 58.226250 58.645292 59.059580 59.468493 59.871774 60.268809 60.659344
61.042784 61.418882 61.787068 62.147113 62.498480 62.840958 63.174049 63.497570
63.811064 64.114377 64.407098 64.689103 64.960028 65.219779 65.468039 65.704742
65.929619 66.142626 66.343540 66.532336 66.708832 66.873021 67.024756 67.164042
67.290764 67.404936 67.506470 67.595382 67.671609 67.735166 67.786012 67.824159
67.849583 67.862290 67.862275 67.849538 67.824089 67.785920 67.735061 67.671498
67.595279 67.506387 67.404890 67.290771 67.164123 67.024933 66.873321 66.709280
66.532964 66.344379 66.143713 65.930991 65.706440 65.470107 65.222263 64.962979
64.692575 64.411147 64.119063 63.816450 63.503724 63.181042 62.848865 62.507378
62.157088 61.798204 61.431270 61.056520 60.674529 60.285545 59.890171 59.488663
59.081643 58.669368 58.252469 57.831201 57.406193 56.977689 56.546311 56.112286
55.676219 55.238315 54.799157 54.358921 53.918161 53.477024 53.036028 52.595289
52.155285 51.716097 51.278165 50.841531 50.406592 49.973357 49.542179 49.113030
48.686219 48.261688 47.839698 47.420163 47.003299 46.588991 46.177414 45.768428
45.362166 44.958465 44.557419 44.158848 43.762806 43.369099 42.977744 42.588537
42.201460 41.816303 41.433015 41.051381 40.671323 40.292623 39.915178 39.538773
39.163278 38.788487 38.414249 38.040365 37.666667
38.044444 38.457157 38.870060 39.283325 39.697155 40.111704 40.527184 40.943725
41.361546 41.780752 42.201563 42.624056 43.048449 43.474789 43.903289 44.333959
44.767006 45.202403 45.640342 46.080760 46.523830 46.969448 47.417767 47.868640
48.322197 48.778242 49.236881 49.697871 50.161286 50.626837 51.094563 51.564126
52.035532 52.508394 52.982679 53.457954 53.934148 54.410780 54.887744 55.364513
55.840944 56.316473 56.790918 57.263682 57.734552 58.202899 58.668485 59.130660
59.589161 60.043325 60.492875 60.937142 61.375841 61.808307 62.234255 62.653034
63.064365 63.467622 63.862540 64.248524 64.625332 64.992406 65.349532 65.696198
66.032219 66.357134 66.670790 66.972777 67.262978 67.541035 67.806861 68.060151
68.300848 68.528696 68.743663 68.945539 69.134313 69.309815 69.472051 69.620886