# vtk DataFile Version 3.0
Steady-state temperature (Jacobi)
ASCII
DATASET STRUCTURED_POINTS
DIMENSIONS 181 181 1
ORIGIN 0.0 0.0 0.0
SPACING 0.05 0.05 1.0
POINT_DATA 32761
SCALARS Temperature float 1
LOOKUP_TABLE default
32.000000 32.000000 32.000000 32.000000 32.000000 32.000000 32.000000 32.000000
32.000000 32.000000 32.000000 32.000000 32.000000 32.000000 32.000000 32.000000
32.000000 32.000000 32.000000 32.000000 32.000000 32.000000 32.000000 32.000000
32.000000 32.000000 32.000000 32.000000 32.000000 32.000000 32.000000 32.000000
32.000000 32.000000 32.000000 32.000000 32.000000 32.000000 32.000000 32.000000
32.000000 32.000000 32.000000 32.000000 32.000000 32.000000 32.000000 32.000000
32.000000 32.000000 32.000000 32.000000 32.000000 32.000000 32.000000 32.000000
32.000000 32.000000 32.000000 32.000000 32.000000 32.000000 32.000000 32.000000
32.000000 32.000000 32.000000 32.000000 32.000000 32.000000 32.000000 32.000000
32.000000 32.000000 32.000000 32.000000 32.000000 32.000000 32.000000 32.000000
32.000000 32.000000 32.000000 32.000000 32.000000 32.000000 32.000000 32.000000
32.000000 32.000000 32.000000 32.000000 32.000000 32.000000 32.000000 32.000000
32.000000 32.000000 32.000000 32.000000 32.000000 32.000000 32.000000 32.000000
32.000000 32.000000 32.000000 32.000000 32.000000 32.000000 32.000000 32.000000
32.000000 32.000000 32.000000 32.000000 32.000000 32.000000 32.000000 32.000000
32.000000 32.000000 32.000000 32.000000 32.000000 32.000000 32.000000 32.000000
32.000000 32.000000 32.000000 32.000000 32.000000 32.000000 32.000000 32.000000
32.000000 32.000000 32.000000 32.000000 32.000000 32.000000 32.000000 32.000000
32.000000 32.000000 32.000000 32.000000 32.000000 32.000000 32.000000 32.000000
32.000000 32.000000 32.000000 32.000000 32.000000 32.000000 32.000000 32.000000
32.000000 32.000000 32.000000 32.000000 32.000000 32.000000 32.000000 32.000000
32.000000 32.000000 32.000000 32.000000 32.000000 32.000000 32.000000 32.000000
32.000000 32.000000 32.000000 32.000000 32.000000
32.377778 32.395805 32.413851 32.431935 32.450074 32.468289 32.486593 32.505011
32.523552 32.542242 32.561086 32.580112 32.599322 32.618743 32.638375 32.658244
32.678345 32.698707 32.719320 32.740212 32.761368 32.782816 32.804538 32.826559
32.848858 32.871460 32.894337 32.917512 32.940955 32.964688 32.988674 33.012934
33.037427 33.062172 33.087124 33.112300 33.137652 33.163192 33.188870 33.214698
33.240620 33.266647 33.292720 33.318847 33.344968 33.371090 33.397150 33.423152
33.449034 33.474798 33.500381 33.525785 33.550946 33.575864 33.600478 33.624788
33.648732 33.672309 33.695462 33.718189 33.740434 33.762197 33.783424 33.804115
33.824220 33.843740 33.862628 33.880886 33.898470 33.915383 33.931585 33.947081
33.961834 33.975848 33.989092 34.001570 34.013255 34.024151 34.034235 34.043510
34.051958 34.059582 34.066367 34.072316 34.077416 34.081672 34.085073 34.087623
34.089315 34.090151 34.090130 34.089251 34.087515 34.084923 34.081479 34.077180
34.072037 34.066046 34.059218 34.051552 34.043062 34.033744 34.023619 34.012681
34.000955 33.988437 33.975153 33.961099 33.946307 33.930774 33.914534 33.897585
33.879966 33.861676 33.842756 33.823206 33.803073 33.782355 33.761105 33.739321
33.717058 33.694316 33.671152 33.647566 33.623618 33.599309 33.574700 33.549791
33.524646 33.499263 33.473707 33.447977 33.422136 33.396181 33.370178 33.344120
33.318072 33.292027 33.266046 33.240121 33.214312 33.188608 33.163065 33.137672
33.112481 33.087479 33.062714 33.038170 33.013893 32.989865 32.966127 32.942658
32.919495 32.896617 32.874056 32.851788 32.829842 32.808191 32.786860 32.765823
32.745098 32.724657 32.704517 32.684649 32.665062 32.645730 32.626657 32.607816
32.589210 32.570808 32.552611 32.534590 32.516741 32.499036 32.481467 32.464008
32.446647 32.429362 32.412135 32.394947 32.377778
32.755556 32.791625 32.827733 32.863913 32.900209 32.936649 32.973280 33.010123
33.047230 33.084615 33.122332 33.160388 33.198838 33.237684 33.276980 33.316720
33.356960 33.397685 33.438951 33.480734 33.523089 33.565985 33.609475 33.653518
33.698166 33.743368 33.789174 33.835525 33.882467 33.929932 33.977962 34.026482
34.075530 34.125021 34.174989 34.225343 34.276111 34.327195 34.378619 34.430278
34.482192 34.534248 34.586465 34.638723 34.691037 34.743285 34.795476 34.847485
34.899320 34.950854 35.002090 35.052903 35.103293 35.153136 35.202431 35.251054
35.299006 35.346165 35.392532 35.437989 35.482537 35.526064 35.568572 35.609956
35.650216 35.689256 35.727078 35.763592 35.798802 35.832626 35.865069 35.896057
35.925596 35.953621 35.980138 36.005090 36.028485 36.050273 36.070461 36.089008
36.105921 36.121166 36.134749 36.146643 36.156855 36.165363 36.172173 36.177270
36.180658 36.182330 36.182287 36.180530 36.177056 36.171872 36.164977 36.156383
36.146086 36.134107 36.120438 36.105109 36.088112 36.069481 36.049209 36.027339
36.003862 35.978829 35.952231 35.924128 35.894511 35.863447 35.830930 35.797035
35.761755 35.725175 35.687289 35.648189 35.607873 35.566438 35.523883 35.480313
35.435729 35.390242 35.343852 35.296677 35.248717 35.200094 35.150809 35.100987
35.050627 34.999857 34.948674 34.897208 34.845455 34.793542 34.741462 34.689343
34.637175 34.585081 34.533048 34.481195 34.429506 34.378096 34.326942 34.276155
34.225706 34.175701 34.126107 34.077019 34.028404 33.980348 33.932812 33.885875
33.839494 33.793739 33.748564 33.704029 33.660086 33.616787 33.574078 33.532004
33.490510 33.449631 33.409310 33.369573 33.330363 33.291697 33.253518 33.215835
33.178590 33.141784 33.105362 33.069316 33.033592 32.998176 32.963015 32.928089
32.893349 32.858767 32.824297 32.789908 32.755556
33.133333 33.187475 33.241670 33.295983 33.350457 33.405163 33.460137 33.515453
33.571139 33.627273 33.683871 33.741016 33.798714 33.857048 33.916013 33.975695
34.036076 34.097240 34.159160 34.221918 34.285473 34.349906 34.415163 34.481324
34.548318 34.616224 34.684958 34.754592 34.825032 34.896344 34.968419 35.041319
35.114922 35.189284 35.264270 35.339931 35.416121 35.492881 35.570057 35.647683
35.725596 35.803822 35.882190 35.960722 36.039238 36.117755 36.196087 36.274247
36.352045 36.429490 36.506390 36.582751 36.658381 36.733283 36.807268 36.880337
36.952305 37.023171 37.092758 37.161065 37.227921 37.293326 37.357117 37.419298
37.479714 37.538370 37.595125 37.649984 37.702816 37.753630 37.802308 37.848859
37.893178 37.935276 37.975059 38.012539 38.047636 38.080361 38.110646 38.138502
38.163872 38.186768 38.207143 38.225006 38.240323 38.253101 38.263315 38.270970
38.276052 38.278564 38.278499 38.275860 38.270649 38.262865 38.252523 38.239617
38.224172 38.206181 38.185679 38.162656 38.137159 38.109177 38.078768 38.045918
38.010699 37.973097 37.933194 37.890978 37.846543 37.799878 37.751090 37.700168
37.647232 37.592273 37.535424 37.476678 37.416177 37.353919 37.290057 37.224589
37.157679 37.089327 37.019705 36.948815 36.876835 36.803767 36.729797 36.654925
36.579341 36.503044 36.426225 36.348882 36.271206 36.193190 36.115026 36.036702
35.958405 35.880120 35.802028 35.724107 35.646533 35.569278 35.492509 35.416191
35.340484 35.265344 35.190920 35.117163 35.044209 34.972004 34.900673 34.830152
34.760555 34.691814 34.624027 34.557123 34.491187 34.426141 34.362058 34.298857
34.236597 34.175193 34.114693 34.055010 33.996176 33.938105 33.880818 33.824226
33.768339 33.713069 33.658415 33.604290 33.550681 33.497506 33.444740 33.392305
33.340167 33.288252 33.236517 33.184895 33.133333
33.511111 33.583367 33.655700 33.728179 33.800890 33.873890 33.947273 34.021084
34.095423 34.170321 34.245885 34.322131 34.399168 34.476999 34.555736 34.635363
34.715996 34.797602 34.880296 34.964029 35.048912 35.134882 35.222046 35.310321
35.399811 35.490418 35.582238 35.675154 35.769259 35.864416 35.960711 36.057991
36.156334 36.255569 36.355766 36.456738 36.558546 36.660990 36.764121 36.867725
36.971844 37.076252 37.180983 37.285802 37.390733 37.495533 37.600221 37.704547
37.808522 37.911893 38.014668 38.116593 38.217669 38.317645 38.416521 38.514049
38.610226 38.704812 38.797804 38.888969 38.978307 39.065595 39.150833 39.233813
39.314536 39.392808 39.468634 39.541833 39.612414 39.680211 39.745237 39.807342
39.866540 39.922700 39.975835 40.025831 40.072704 40.116354 40.156798 40.193952
40.227831 40.258367 40.285573 40.309397 40.329849 40.346889 40.360527 40.370736
40.377522 40.380871 40.380785 40.377265 40.370308 40.359929 40.346120 40.328909
40.308287 40.284293 40.256917 40.226213 40.192165 40.154844 40.114234 40.070418
40.023382 39.973224 39.919928 39.863612 39.804259 39.742003 39.676829 39.608889
39.538170 39.464838 39.388886 39.310495 39.229659 39.146576 39.061243 38.973872
38.884462 38.793237 38.700198 38.605581 38.509388 38.411862 38.313006 38.213070
38.112055 38.010215 37.907549 37.804313 37.700501 37.596369 37.491904 37.387362
37.282722 37.178233 37.073869 36.969869 36.866201 36.763094 36.660505 36.558653
36.457486 36.357210 36.257763 36.159336 36.061859 35.965507 35.870202 35.776102
35.683120 35.591397 35.500840 35.411571 35.323490 35.236704 35.151105 35.066782
34.983623 34.901700 34.820898 34.741270 34.662700 34.585224 34.508724 34.433220
34.358596 34.284855 34.211883 34.139667 34.068097 33.997146 33.926707 33.856740
33.787145 33.717869 33.648817 33.579927 33.511111
33.888889 33.979319 34.069841 34.160557 34.251546 34.342922 34.434748 34.527147
34.620165 34.713933 34.808481 34.903944 35.000334 35.097791 35.196306 35.296022
35.396909 35.499112 35.602580 35.707454 35.813665 35.921350 36.030417 36.140999
36.252982 36.366494 36.481397 36.597811 36.715578 36.834810 36.955325 37.077225
37.200308 37.324667 37.450077 37.576621 37.704056 37.832451 37.961548 38.091403
38.221743 38.352612 38.483723 38.615112 38.746478 38.877847 39.008911 39.139688
39.269861 39.399443 39.528115 39.655881 39.782425 39.907747 40.031534 40.153783
40.274187 40.392743 40.509153 40.623416 40.735246 40.844641 40.951332 41.055321
41.156353 41.254433 41.349327 41.441042 41.529363 41.614303 41.695665 41.773466
41.847530 41.917875 41.984347 42.046967 42.105599 42.160265 42.210851 42.257378
42.299750 42.337986 42.372011 42.401841 42.427416 42.448752 42.465806 42.478589
42.487074 42.491267 42.491161 42.486754 42.478055 42.465060 42.447793 42.426245
42.400456 42.370415 42.336179 42.297731 42.255150 42.208414 42.157621 42.102748
42.043912 41.981090 41.914419 41.843877 41.769621 41.691632 41.610086 41.524967
41.436474 41.344592 41.249541 41.151311 41.050140 40.946022 40.839214 40.729714
40.617794 40.503457 40.386988 40.268393 40.147970 40.025723 39.901962 39.776690
39.650223 39.522562 39.394027 39.264615 39.134646 39.004110 38.873327 38.742278
38.611278 38.480301 38.349650 38.219291 38.089516 37.960281 37.831864 37.704207
37.577577 37.451902 37.327431 37.204082 37.082083 36.961342 36.842068 36.724157
36.607796 36.492872 36.379551 36.267710 36.157494 36.048772 35.941665 35.836037
35.731987 35.629374 35.528275 35.428546 35.330241 35.233214 35.137500 35.042953
34.949585 34.857254 34.765951 34.675537 34.585986 34.497163 34.409025 34.321442
34.234355 34.147644 34.061233 33.975010 33.888889
34.266667 34.375341 34.484132 34.593144 34.702506 34.812304 34.922681 35.033704
35.145524 35.258190 35.371859 35.486560 35.602455 35.719550 35.838012 35.957822
36.079149 36.201950 36.326392 36.452407 36.580161 36.709557 36.840759 36.973644
37.108367 37.244778 37.383027 37.522936 37.664643 37.807947 37.952974 38.099494
38.247625 38.397110 38.548053 38.700175 38.853566 39.007924 39.163325 39.319448
39.476355 39.633705 39.791549 39.949531 40.107687 40.265651 40.423448 40.580703
40.737431 40.893251 41.048170 41.201807 41.354162 41.504857 41.653888 41.800882
41.945834 42.088381 42.228517 42.365893 42.500504 42.632018 42.760433 42.885434
43.007026 43.124914 43.239105 43.349331 43.455601 43.557671 43.655557 43.749037
43.838131 43.922643 44.002596 44.077818 44.148333 44.213994 44.274826 44.330704
44.381653 44.427571 44.468480 44.504300 44.535049 44.560668 44.581171 44.596519
44.606720 44.611755 44.611628 44.606337 44.595881 44.580278 44.559520 44.533647
44.502644 44.466571 44.425408 44.379238 44.328038 44.271909 44.210829 44.144922
44.074162 43.998699 43.918507 43.833761 43.744435 43.650730 43.552624 43.450340
43.343863 43.233440 43.119059 43.000992 42.879233 42.754077 42.625522 42.493883
42.359164 42.221699 42.081493 41.938900 41.793925 41.646934 41.497933 41.347300
41.195037 41.041528 40.886772 40.731157 40.574674 40.417709 40.260248 40.102671
39.944953 39.787466 39.630174 39.473438 39.317209 39.161831 39.007245 38.853776
38.701350 38.550273 38.400456 38.252185 38.105355 37.960230 37.816691 37.674975
37.534954 37.396839 37.260487 37.126085 36.993482 36.862834 36.733984 36.607061
36.481900 36.358606 36.237006 36.117180 35.998952 35.882376 35.767276 35.653679
35.541412 35.430477 35.320703 35.212071 35.104414 34.997691 34.891742 34.786505
34.681829 34.577634 34.473779 34.370166 34.266667
34.644444 34.771452 34.898589 35.026000 35.153797 35.282138 35.411116 35.540900
35.671560 35.803278 35.936097 36.070208 36.205627 36.342552 36.480972 36.621087
36.762859 36.906486 37.051903 37.199306 37.348600 37.499975 37.653307 37.808780
37.966236 38.125853 38.287442 38.451169 38.616813 38.784530 38.954067 39.125567
39.298746 39.473733 39.650215 39.828304 40.007662 40.188384 40.370107 40.552908
40.736404 40.920655 41.105257 41.290257 41.475234 41.660221 41.844785 42.028946
42.212262 42.394744 42.575946 42.755870 42.934071 43.110545 43.284853 43.456985
43.626513 43.793428 43.957312 44.118159 44.275569 44.429537 44.579685 44.726014
44.868167 45.006151 45.139636 45.268633 45.392842 45.512279 45.626671 45.736041
45.840144 45.939007 46.032416 46.120399 46.202770 46.279561 46.350612 46.415954
46.475456 46.529145 46.576917 46.618796 46.654700 46.684651 46.708590 46.726532
46.738443 46.744330 46.744182 46.737998 46.725791 46.707552 46.683317 46.653070
46.616870 46.574696 46.526631 46.472648 46.412854 46.347221 46.275881 46.198804
46.116148 46.027884 45.934198 45.835061 45.730690 45.621058 45.506409 45.386724
45.262275 45.133046 44.999341 44.861150 44.718802 44.572294 44.421982 44.267868
44.110334 43.949383 43.785419 43.618449 43.448895 43.276766 43.102495 42.926092
42.748000 42.568225 42.387215 42.204970 42.021941 41.838118 41.653948 41.469412
41.284948 41.100525 40.916569 40.733034 40.550331 40.368399 40.187629 40.007944
39.829714 39.652844 39.477679 39.304108 39.132450 38.962578 38.794781 38.628916
38.465244 38.303609 38.144240 37.986967 37.831989 37.679125 37.528544 37.380054
37.233793 37.089564 36.947471 36.807314 36.669167 36.532827 36.398338 36.265496
36.134319 36.004605 35.876342 35.749332 35.623541 35.498776 35.374977 35.251961
35.129645 35.007859 34.886496 34.765399 34.644444
35.022222 35.167658 35.313252 35.459142 35.605504 35.752452 35.900179 36.048776
36.198445 36.349253 36.501411 36.654958 36.810113 36.966884 37.125496 37.285923
37.448394 37.612851 37.779519 37.948308 38.119440 38.292790 38.468572 38.646626
38.827160 39.009976 39.195270 39.382809 39.572776 39.764903 39.959358 40.155837
40.354492 40.554985 40.757450 40.961518 41.167303 41.374406 41.582923 41.792427
42.002995 42.214177 42.426030 42.638083 42.850378 43.062427 43.274256 43.485364
43.695766 43.904954 44.112930 44.319184 44.523711 44.726005 44.926056 45.123364
45.317917 45.509231 45.697292 45.881634 46.062247 46.238686 46.410946 46.578609
46.741674 46.899752 47.052852 47.200612 47.343049 47.479836 47.610994 47.736230
47.855571 47.968757 48.075821 48.176535 48.270933 48.358821 48.440234 48.515009
48.583179 48.644612 48.699338 48.747251 48.788379 48.822643 48.850063 48.870589
48.884232 48.890967 48.890798 48.883725 48.869745 48.848882 48.821124 48.786524
48.745059 48.696810 48.641750 48.579983 48.511480 48.436374 48.354632 48.266418
48.171695 48.070662 47.963282 47.849785 47.730137 47.604603 47.473152 47.336083
47.193372 47.045349 46.891999 46.733684 46.570396 46.402529 46.230083 46.053479
45.872723 45.688263 45.500110 45.308736 45.114152 44.916849 44.716840 44.514629
44.310225 44.104143 43.896386 43.687472 43.477397 43.266677 43.055297 42.843766
42.632057 42.420665 42.209549 41.999189 41.789526 41.581019 41.373590 41.167676
40.963179 40.760509 40.559549 40.360678 40.163762 39.969147 39.776680 39.586676
39.398962 39.213820 39.031062 38.850933 38.673232 38.498168 38.325528 38.155486
37.987820 37.822668 37.659800 37.499319 37.340993 37.184889 37.030774 36.878681
36.728378 36.579867 36.432920 36.287508 36.143408 36.000563 35.858760 35.717914
35.577824 35.438379 35.299392 35.160731 35.022222
35.400000 35.563981 35.728130 35.892636 36.057642 36.223357 36.389897 36.557486
36.726213 36.896314 37.067847 37.241058 37.415971 37.592841 37.771656 37.952674
38.135849 38.321437 38.509355 38.699858 38.892823 39.088499 39.286724 39.487738
39.691340 39.897757 40.106749 40.318528 40.532813 40.749802 40.969174 41.191107
41.415241 41.641736 41.870195 42.100756 42.332985 42.567001 42.802338 43.039090
43.276764 43.515432 43.754575 43.994247 44.233904 44.473584 44.712727 44.951352
45.188891 45.425349 45.660150 45.893290 46.124194 46.352850 46.578690 46.801698
47.021318 47.237532 47.449804 47.658117 47.861958 48.061315 48.255702 48.445114
48.629096 48.807651 48.980358 49.147229 49.307880 49.462328 49.610229 49.751608
49.886157 50.013909 50.134593 50.248246 50.354634 50.453796 50.545534 50.629888
50.706692 50.775985 50.837634 50.891672 50.937998 50.976638 51.007522 51.030669
51.046035 51.053630 51.053441 51.045467 51.029723 51.006199 50.974938 50.935920
50.889217 50.834803 50.772780 50.703113 50.625936 50.541212 50.449105 50.349577
50.242826 50.128814 50.007777 49.879675 49.744784 49.603069 49.454842 49.300075
49.139118 48.971952 48.798964 48.620143 48.435913 48.246271 48.051676 47.852133
47.648133 47.439687 47.227315 47.011031 46.791379 46.568377 46.342585 46.114021
45.883259 45.650311 45.415759 45.179608 44.942440 44.704250 44.465615 44.226517
43.987521 43.748593 43.510283 43.272537 43.035885 42.800253 42.566145 42.333466
42.102690 41.873701 41.646941 41.422270 41.200097 40.980261 40.763133 40.548532
40.336790 40.127707 39.921577 39.718182 39.517776 39.320126 39.125447 38.933493
38.744438 38.558028 38.374397 38.193285 38.014785 37.838635 37.664891 37.493289
37.323849 37.156310 36.990655 36.826631 36.664186 36.503076 36.343219 36.184380
36.026449 35.869205 35.712511 35.556164 35.400000
35.777778 35.960423 36.143268 36.326488 36.510304 36.694862 36.880405 37.067048
37.255047 37.444486 37.635634 37.828540 38.023480 38.220466 38.419781 38.621398
38.825600 39.032320 39.241841 39.454051 39.669230 39.887223 40.108300 40.332263
40.559371 40.789379 41.022534 41.258545 41.497641 41.739488 41.984295 42.231684
42.481841 42.734348 42.989367 43.246437 43.505699 43.766653 44.029414 44.293449
44.558848 44.825045 45.092109 45.359448 45.627106 45.894472 46.161569 46.427771
46.693085 46.956873 47.219130 47.479216 47.737115 47.992191 48.244421 48.493180
48.738444 48.979604 49.216636 49.448956 49.676543 49.898842 50.115840 50.327014
50.532361 50.731393 50.924117 51.110087 51.289319 51.461408 51.626379 51.783871
51.933918 52.076198 52.210753 52.337304 52.455895 52.566289 52.668531 52.762421
52.848005 52.925119 52.993805 53.053935 53.105543 53.148536 53.182939 53.208691
53.225808 53.234259 53.234050 53.225181 53.207646 53.181477 53.146656 53.103247
53.051222 52.990677 52.921576 52.844048 52.758053 52.663752 52.561103 52.450305
52.331312 52.204364 52.069417 51.926751 51.776325 51.618463 51.453129 51.280688
51.101117 50.914821 50.721786 50.522460 50.316838 50.105411 49.888182 49.665678
49.437913 49.205448 48.968304 48.727069 48.481769 48.233018 47.980841 47.725870
47.468128 47.208257 46.946276 46.682831 46.417928 46.152213 45.885679 45.618963
45.352039 45.085530 44.819391 44.554222 44.289958 44.027173 43.765776 43.506312
43.248665 42.993346 42.740214 42.489741 42.241763 41.996711 41.754397 41.515211
41.278941 41.045935 40.815960 40.589320 40.365764 40.145550 39.928415 39.714569
39.503738 39.296088 39.091335 38.889602 38.690599 38.494406 38.300732 38.109615
37.920763 37.734177 37.549569 37.366901 37.185892 37.006470 36.828365 36.651469
36.475528 36.300403 36.125856 35.951720 35.777778
36.155556 36.357007 36.558667 36.760768 36.963489 37.167086 37.371706 37.577624
37.784952 37.993980 38.204784 38.417664 38.632656 38.850069 39.069898 39.292454
39.517687 39.745911 39.977030 40.211352 40.448735 40.689481 40.933398 41.180778
41.431378 41.685477 41.942783 42.203556 42.467456 42.734721 43.004962 43.278394
43.554582 43.833714 44.115308 44.399527 44.685846 44.974399 45.264620 45.556616
45.849785 46.144206 46.439245 46.734956 47.030676 47.326437 47.621557 47.916045
48.209204 48.501029 48.790814 49.078540 49.363504 49.645676 49.924361 50.199527
50.470492 50.737224 50.999064 51.255983 51.507353 51.753151 51.992782 52.226234
52.452953 52.672935 52.885671 53.091169 53.288964 53.479077 53.661090 53.835035
54.000540 54.157645 54.306026 54.445729 54.576475 54.698315 54.811011 54.914616
55.008932 55.094010 55.169692 55.236021 55.292879 55.340299 55.378198 55.406601
55.425457 55.434778 55.434550 55.424771 55.405458 55.376599 55.338243 55.290367
55.233054 55.166270 55.090135 55.004605 54.909838 54.805784 54.692642 54.570360
54.439175 54.299036 54.150227 53.992699 53.826779 53.652428 53.470019 53.279520
53.081354 52.875498 52.662422 52.442117 52.215098 51.981368 51.741484 51.495462
51.243900 50.986820 50.724858 50.458044 50.187041 49.911884 49.633260 49.351202
49.066414 48.778924 48.489445 48.197996 47.905293 47.611339 47.316843 47.021794
46.726886 46.432087 46.138070 45.844779 45.552864 45.262241 44.973526 44.686611
44.402076 44.119783 43.840271 43.563376 43.289594 43.018732 42.751242 42.486905
42.226124 41.968657 41.714859 41.464467 41.217785 40.974533 40.734965 40.498784
40.266198 40.036896 39.811037 39.588305 39.368807 39.152225 38.938620 38.727671
38.519397 38.313477 38.109890 37.908321 37.708708 37.510745 37.314332 37.119180
36.925150 36.731970 36.539471 36.347399 36.155556
36.533333 36.753732 36.974373 37.195471 37.417293 37.640020 37.863943 38.089207
38.316120 38.544789 38.775536 39.008425 39.243790 39.481650 39.722345 39.965849
40.212502 40.462228 40.715367 40.971792 41.231838 41.495324 41.762573 42.033354
42.307976 42.586151 42.868171 43.153695 43.442994 43.735672 44.031975 44.331455
44.634330 44.940100 45.248957 45.560349 45.874437 46.190624 46.509040 46.829044
47.150737 47.473439 47.797221 48.121371 48.445931 48.770164 49.094087 49.416942
49.738726 50.058671 50.376754 50.692204 51.004987 51.314335 51.620208 51.921852
52.219223 52.511588 52.798907 53.080476 53.356260 53.625590 53.888444 54.144193
54.392825 54.633761 54.867001 55.092015 55.308817 55.516928 55.716377 55.906735
56.088044 56.259926 56.422431 56.575234 56.718389 56.851618 56.974980 57.088244
57.191464 57.284455 57.367267 57.439753 57.501958 57.553774 57.595234 57.626267
57.646894 57.657081 57.656833 57.646151 57.625029 57.593501 57.551546 57.499236
57.436537 57.363558 57.280254 57.186773 57.083063 56.969314 56.845468 56.711758
56.568127 56.414853 56.251882 56.079542 55.897782 55.706983 55.507104 55.298575
55.081369 54.855968 54.622358 54.381073 54.132113 53.876063 53.612935 53.343361
53.067367 52.785627 52.498175 52.205722 51.908309 51.606678 51.300870 50.991649
50.679057 50.363868 50.046118 49.726588 49.405299 49.083030 48.759787 48.436336
48.112660 47.789509 47.466841 47.145378 46.825051 46.506551 46.189778 45.875384
45.563241 45.253958 44.947373 44.644051 44.343800 44.047135 43.753833 43.464360
43.178465 42.896559 42.618368 42.344249 42.073906 41.807641 41.545140 41.286650
41.031842 40.780912 40.533516 40.289800 40.049412 39.812446 39.578549 39.347763
39.119738 38.894467 38.671605 38.451102 38.232619 38.016064 37.801111 37.587629
37.375307 37.163978 36.953352 36.743225 36.533333
36.911111 37.150621 37.390381 37.630670 37.871703 38.113786 38.357099 38.601967
38.848529 39.097130 39.347865 39.601091 39.856856 40.115527 40.377102 40.641953
40.910026 41.181693 41.456845 41.735850 42.018543 42.305283 42.595848 42.890583
43.189208 43.492050 43.798770 44.109673 44.424362 44.743116 45.065480 45.391705
45.721277 46.054417 46.390556 46.729882 47.071773 47.416382 47.763039 48.111863
48.462140 48.813953 49.166549 49.519982 49.873464 50.227019 50.579835 50.931910
51.282414 51.631325 51.977802 52.321809 52.662505 52.999842 53.332992 53.661899
53.985754 54.304504 54.617367 54.924295 55.224542 55.518071 55.804177 56.082838
56.353398 56.615849 56.869589 57.114626 57.350413 57.576975 57.793822 58.000993
58.198057 58.385062 58.561634 58.727831 58.883332 59.028200 59.162165 59.285290
59.397356 59.498421 59.588310 59.667077 59.734587 59.790884 59.835875 59.869590
59.891974 59.903041 59.902775 59.891175 59.868259 59.834011 59.788488 59.731658
59.663617 59.584320 59.493902 59.392308 59.279718 59.156068 59.021583 58.876197
58.720184 58.553479 58.376406 58.188906 57.991358 57.783711 57.566401 57.339388
57.103166 56.857711 56.603573 56.340745 56.069833 55.790847 55.504446 55.210655
54.910183 54.603068 54.290064 53.971219 53.647322 53.318427 52.985352 52.648152
52.307665 51.963941 51.617827 51.269365 50.919401 50.567961 50.215885 49.863176
49.510657 49.158306 48.806921 48.456449 48.107659 47.760464 47.415593 47.072927
46.733150 46.396109 46.062439 45.731953 45.405233 45.082058 44.762957 44.447676
44.136686 43.829706 43.527148 43.228705 42.934729 42.644892 42.359487 42.078165
41.801164 41.528119 41.259210 40.994062 40.732799 40.475040 40.220854 39.969860
39.722073 39.477115 39.234952 38.995213 38.757816 38.522401 38.288843 38.056796
37.826095 37.596413 37.367546 37.139192 36.911111
37.288889 37.547670 37.806739 38.066348 38.326817 38.588359 38.851319 39.115869
39.382375 39.650965 39.922018 40.195617 40.472152 40.751652 41.034516 41.320720
41.610663 41.904263 42.201918 42.503487 42.809360 43.119335 43.433789 43.752457
44.075699 44.403189 44.735263 45.071531 45.412305 45.757130 46.106288 46.459262
46.816302 47.176828 47.541055 47.908345 48.278875 48.651952 49.027715 49.405419
49.785167 50.166166 50.548484 50.931287 51.314609 51.697585 52.080218 52.461619
52.841764 53.219751 53.595534 53.968207 54.337711 54.703142 55.064434 55.420701
55.771874 56.117092 56.456290 56.788645 57.114099 57.431873 57.741925 58.043524
58.336647 58.620618 58.895434 59.160479 59.415767 59.660746 59.895448 60.119383
60.332599 60.534666 60.725646 60.905170 61.073305 61.229740 61.374546 61.507465
61.628567 61.737643 61.834759 61.919752 61.992677 62.053415 62.102009 62.138380
62.162556 62.174496 62.174212 62.161702 62.136957 62.100016 62.050854 61.989547
61.916054 61.830495 61.732813 61.623173 61.501508 61.368030 61.222666 61.065679
60.896994 60.716928 60.525411 60.322815 60.109080 59.884637 59.649438 59.403977
59.148222 58.882731 58.607488 58.323113 58.029613 57.727666 57.417298 57.099244
56.773548 56.440996 56.101646 55.756328 55.405110 55.048860 54.687647 54.322367
53.953088 53.580723 53.205330 52.827830 52.448266 52.067553 51.685716 51.303656
50.921370 50.539737 50.158723 49.779175 49.401027 49.025084 48.651244 48.280268
47.912015 47.547195 47.185628 46.827970 46.474003 46.124325 45.778683 45.437611
45.100824 44.768795 44.441207 44.118469 43.800239 43.486863 43.177973 42.873853
42.574118 42.278989 41.988066 41.701510 41.418912 41.140373 40.865480 40.594275
40.326348 40.061686 39.799881 39.540870 39.284256 39.029925 38.777494 38.526803
38.277489 38.029348 37.782042 37.535326 37.288889
37.666667 37.944903 38.223432 38.502582 38.782606 39.063862 39.346563 39.631088
39.917605 40.206515 40.497933 40.792276 41.089607 41.390350 41.694513 42.002525
42.314334 42.630368 42.950512 43.275190 43.604222 43.938019 44.276338 44.619572
44.967409 45.320224 45.677634 46.039987 46.406835 46.778493 47.154445 47.534973
47.919492 48.308247 48.700589 49.096723 49.495936 49.898393 50.303323 50.710849
51.120146 51.531296 51.943427 52.356583 52.769852 53.183241 53.595808 54.007529
54.417440 54.825492 55.230708 55.633021 56.031456 56.425931 56.815483 57.200026
57.578621 57.951182 58.316803 58.675410 59.026139 59.368930 59.702971 60.028220
60.343925 60.650065 60.945952 61.231588 61.506351 61.770264 62.022775 62.263926
62.493232 62.710753 62.916068 63.109250 63.289940 63.458218 63.613786 63.756723
63.886785 64.004051 64.108326 64.199680 64.277965 64.343238 64.395397 64.434481
64.460429 64.473262 64.472959 64.459522 64.432969 64.393280 64.340517 64.274640
64.195751 64.103795 63.998919 63.881053 63.750393 63.606860 63.450701 63.281834
63.100560 62.906801 62.700915 62.482831 62.252973 62.011280 61.758241 61.493814
61.218556 60.932443 60.636102 60.329531 60.013425 59.687805 59.353428 59.010338
58.659354 58.300535 57.934754 57.562086 57.183447 56.798921 56.409457 56.015144
55.616954 55.214969 54.810176 54.402644 53.993361 53.582376 53.170666 52.758257
52.346104 51.934201 51.523473 51.113878 50.706302 50.300663 49.897802 49.497596
49.100832 48.707344 48.317864 47.932182 47.550968 47.173973 46.801802 46.434167
46.071607 45.713799 45.361212 45.013495 44.671047 44.333489 44.001153 43.673636
43.351204 43.033436 42.720531 42.412056 42.108146 41.808359 41.512768 41.220930
40.932856 40.648107 40.366636 40.088012 39.812135 39.538584 39.267210 38.997611
38.729587 38.462760 38.196887 37.931617 37.666667
38.044444 38.342311 38.640511 38.939342 39.239171 39.540251 39.842980 40.147562
40.454419 40.763706 41.075860 41.390982 41.709522 42.031524 42.357445 42.687265
43.021445 43.359899 43.703085 44.050849 44.403639 44.761234 45.124064 45.491837
45.864964 46.243079 46.626566 47.014988 47.408697 47.807182 48.210761 48.618849
49.031724 49.448731 49.870106 50.295124 50.723977 51.155873 51.590960 52.028385
52.468250 52.909648 53.352635 53.796258 54.240531 54.684462 55.128028 55.570209
56.010949 56.449209 56.884912 57.317010 57.745408 58.169065 58.587879 59.000826
59.407803 59.807819 60.200775 60.585725 60.962584 61.330456 61.689278 62.038215
62.377227 62.705546 63.023159 63.329369 63.624189 63.906996 64.177827 64.436134
64.681974 64.914871 65.134899 65.341653 65.535215 65.715246 65.881835 66.034702